# LAMMPS data file written by OVITO Basic 3.4.0
7958 atoms
1755 bonds
3 atom types
1 bond types
0.0 60.0 xlo xhi
0.0 60.0 ylo yhi
0.0 60.0 zlo zhi

Atoms  # molecular

1 1 1 29.5626 53.4234 30.0612
2 1 1 23.139 52.2942 29.7144
3 1 1 22.8708 45.8604 21.1632
4 1 1 23.8152 49.9542 27.501
5 1 1 22.6128 50.7786 27.8022
6 1 1 27.6432 52.1076 29.6964
7 1 1 25.8162 45.9762 19.5774
8 1 1 26.5764 53.1894 29.787
9 1 1 19.4922 46.1322 27.8676
10 1 1 22.9122 49.5396 24.669
11 1 1 27.363 51.5718 22.1394
12 1 1 26.478 48.7998 24.8634
13 1 1 27.3492 49.1154 19.8336
14 1 1 24.0534 50.6676 21.384
15 1 1 25.7718 50.1144 29.5758
16 1 1 26.6964 47.8482 20.4684
17 1 1 24.0264 51.1842 23.9688
18 1 1 27.888 51.8778 27.1146
19 1 1 25.9068 50.4174 26.5236
20 1 1 28.815 51.597 22.515
21 1 1 25.302 49.662 24.132
22 1 1 19.3224 45.8562 29.2308
23 1 1 26.9106 52.4298 26.085
24 1 1 23.3046 49.8234 30.1068
25 1 1 22.1016 47.1546 23.2872
26 1 1 26.3298 52.044 23.1294
27 1 1 22.3104 49.5618 22.9626
28 1 1 29.013 51.4458 23.97
29 1 1 24.363 48.8532 23.1402
30 1 1 22.0662 48.1602 26.7768
31 1 1 25.2798 52.9608 29.2404
32 1 1 21.699 50.4612 26.5698
33 1 1 25.5306 51.1044 24.2154
34 1 1 23.6388 51.7278 25.2216
35 1 1 21.2964 48.4656 23.2872
36 1 1 23.205 51.9642 28.1928
37 1 1 26.5596 48.9708 26.2944
38 1 1 28.5312 50.6364 25.9722
39 1 1 24.4752 49.5384 29.1408
40 1 1 26.5326 50.394 21.7194
41 1 1 20.667 45.8682 23.8968
42 1 1 24.501 50.5656 26.3538
43 1 1 28.6584 49.269 20.3478
44 1 1 20.4768 47.505 25.8978
45 1 1 19.4442 47.8032 27.0396
46 1 1 20.6844 48.6612 24.9822
47 1 1 23.6172 49.407 22.1004
48 1 1 29.3196 50.4228 21.7536
49 1 1 25.4376 47.4396 19.89
50 1 1 26.757 47.7948 21.9786
51 1 1 29.1498 50.4648 20.4588
52 1 1 20.0598 48.2478 22.3332
53 1 1 23.3856 48.2214 24.0744
54 1 1 27.8754 50.8032 24.8136
55 1 1 23.3814 48.4614 27.5052
56 1 1 19.7622 46.65 24.8742
57 1 1 22.719 46.1766 19.8522
58 1 1 25.9362 51.0006 28.2402
59 1 1 26.604 51.15 25.4112
60 1 1 25.3944 50.9724 21.3468
61 1 1 22.4796 46.941 21.7692
62 1 1 20.3586 46.6662 29.703
63 1 1 22.26 51.681 25.6662
64 1 1 28.8408 52.257 29.1762
65 1 1 24.6834 47.8506 21.0792
66 1 1 27.936 49.4436 26.7438
67 1 1 19.4724 49.7046 25.1598
68 1 1 28.6836 49.2498 21.8544
69 1 1 24.2934 48.2148 26.3574
70 1 1 22.5672 48.5748 20.0736
71 1 1 27.3486 51.3804 28.3884
72 1 1 25.6386 53.0148 26.6736
73 1 1 24.2688 49.7778 25.137
74 1 1 23.4414 48.1872 21.3246
75 1 1 25.2102 47.7552 22.3992
76 1 1 29.4516 49.6572 28.7226
77 1 1 27.8184 49.3146 24.2334
78 1 1 26.9184 50.5272 20.4906
79 1 1 29.172 52.6026 24.8736
80 1 1 22.83 50.5986 23.8806
81 1 1 20.4822 51.2238 28.218
82 1 1 27.621 52.9746 25.1352
83 1 1 20.271 45.459 22.4442
84 1 1 27.2946 49.1964 22.509
85 1 1 29.0676 52.5348 27.6528
86 1 1 25.194 52.2378 27.9114
87 1 1 21.9648 49.7688 29.4618
88 1 1 21.8112 49.1772 25.7304
89 1 1 27.9648 49.8978 28.2552
90 1 1 21.5448 48.4614 28.113
91 1 1 20.2386 50.427 27.2298
92 1 1 20.0862 48.99 27.8838
93 1 1 21.7344 51.0936 28.7724
94 1 1 14.211 34.2336 20.271
95 1 1 11.6922 33.2658 25.305
96 1 1 12.7218 41.4672 29.9388
97 1 1 12.0768 35.3028 21.1632
98 1 1 13.2744 39.3234 27.639
99 1 1 12.0714 40.1952 27.8088
100 1 1 10.3848 32.6478 23.298
101 1 1 15.3006 34.8702 19.7946
102 1 1 10.3998 33.633 24.5436
103 1 1 9.4782 34.5054 27.7278
104 1 1 15.2952 40.1682 20.0502
105 1 1 12.3696 34.3722 26.1276
106 1 1 12.4014 38.739 24.57
107 1 1 13.302 36.4116 25.0494
108 1 1 13.3854 34.794 21.4614
109 1 1 16.872 40.9254 22.077
110 1 1 12.174 32.5176 20.9286
111 1 1 16.6752 38.4288 19.9026
112 1 1 13.3578 39.6126 20.9808
113 1 1 9.3462 33.1536 26.9916
114 1 1 14.5506 41.5944 22.1736
115 1 1 16.1838 37.0986 20.4618
116 1 1 13.5132 40.9458 24.0906
117 1 1 17.8296 42.705 21.813
118 1 1 12.8628 33.273 28.0002
119 1 1 14.4408 42.8814 21.3696
120 1 1 14.7198 38.712 24.24
121 1 1 13.149 37.1472 28.7448
122 1 1 12.459 39.1098 30.2262
123 1 1 11.5062 36.6504 23.3748
124 1 1 9.186 34.1808 29.0148
125 1 1 12.2832 34.371 27.684
126 1 1 15.882 41.3958 23.0436
127 1 1 13.5522 32.775 20.2416
128 1 1 11.583 38.9094 22.8924
129 1 1 13.863 37.8276 22.9068
130 1 1 11.4522 37.6056 26.9976
131 1 1 14.9886 42.6732 29.0658
132 1 1 10.89 39.7644 26.5062
133 1 1 14.9778 40.2828 24.1344
134 1 1 12.9612 40.977 25.5078
135 1 1 13.4922 42.3858 25.9074
136 1 1 10.5888 37.8912 23.3724
137 1 1 11.8962 33.8232 21.7494
138 1 1 12.5112 41.511 28.5702
139 1 1 16.122 42.7716 23.832
140 1 1 13.6716 38.7624 29.3724
141 1 1 15.7722 39.4896 21.7554
142 1 1 8.8494 32.853 29.031
143 1 1 13.8024 34.5084 22.7982
144 1 1 17.3916 41.0772 20.0022
145 1 1 10.0632 34.9764 24.063
146 1 1 13.7316 39.7974 26.2542
147 1 1 9.657 36.594 25.7772
148 1 1 12.423 32.8266 24.1314
149 1 1 12.891 38.5926 22.05
150 1 1 10.9572 41.6424 29.4894
151 1 1 11.2464 35.4258 24.1692
152 1 1 14.871 36.6216 19.7034
153 1 1 10.9848 36.2556 26.4894
154 1 1 11.1786 32.865 29.9592
155 1 1 12.6984 33.9084 22.9932
156 1 1 12.6144 33.0912 29.535
157 1 1 12.8952 37.5888 24.1116
158 1 1 12.8658 37.7928 27.4176
159 1 1 13.2528 41.7432 22.8384
160 1 1 11.9736 35.529 19.6704
161 1 1 15.4296 40.8744 25.5648
162 1 1 14.7168 40.2576 21.2904
163 1 1 11.6028 36.4914 21.8172
164 1 1 9.6966 36.261 29.7438
165 1 1 12.0552 35.6574 25.5354
166 1 1 11.433 41.0724 25.7076
167 1 1 13.9248 36.5676 20.979
168 1 1 12.6216 42.4572 27.5022
169 1 1 17.0874 41.8722 21.2148
170 1 1 13.7562 37.221 26.328
171 1 1 14.9646 42.3528 26.559
172 1 1 13.7154 38.697 25.2708
173 1 1 12.8706 37.6578 21.1866
174 1 1 14.7588 36.798 22.3002
175 1 1 10.794 36.582 28.7094
176 1 1 16.305 39.6564 20.6046
177 1 1 13.5336 42.7404 30.1308
178 1 1 12.0576 39.8916 23.9226
179 1 1 17.1402 42.6732 24.8382
180 1 1 10.746 35.3826 27.6612
181 1 1 14.7684 41.9214 28.029
182 1 1 11.1084 38.9688 29.4462
183 1 1 11.1912 38.5932 25.5102
184 1 1 10.5618 37.8 28.1808
185 1 1 11.0832 40.3956 28.7298
186 1 1 18.9942 45.4284 25.5462
187 1 1 13.455 45.9426 28.593
188 1 1 17.4006 47.3172 29.919
189 1 1 18.663 47.8068 22.2336
190 1 1 16.6356 46.9254 28.7286
191 1 1 14.8902 45.4716 27.981
192 1 1 13.0062 43.7778 28.3278
193 1 1 14.457 43.701 28.0536
194 1 1 18.3702 48.516 29.9454
195 1 1 18.2616 48.1518 26.5686
196 1 1 18.3042 48.7566 24.8628
197 1 1 15.444 44.4888 24.4506
198 1 1 16.1148 47.4168 24.9744
199 1 1 18.6078 44.3574 21.2214
200 1 1 17.1066 43.5456 22.8318
201 1 1 14.6832 43.9368 22.4526
202 1 1 16.0062 47.0706 26.5332
203 1 1 13.1484 45.1416 29.832
204 1 1 14.6844 46.3602 24.651
205 1 1 18.5052 47.361 24.2046
206 1 1 18.8508 45.1578 22.4292
207 1 1 12.5154 43.8258 29.7336
208 1 1 17.922 45.882 30.0102
209 1 1 14.7984 43.4724 23.9514
210 1 1 15.9354 45.543 29.0556
211 1 1 17.4024 47.0982 27.1014
212 1 1 15.618 48.0486 28.5726
213 1 1 18.3258 45.8892 26.9562
214 1 1 13.632 43.2084 24.741
215 1 1 17.4402 49.425 26.7156
216 1 1 18.678 49.5768 28.8444
217 1 1 14.997 45.0438 25.5144
218 1 1 13.8738 44.1462 25.5582
219 1 1 22.1208 33.255 14.8872
220 1 1 22.815 35.1936 10.5648
221 1 1 21.1326 32.5926 12.7038
222 1 1 21.1686 33.5748 13.9158
223 1 1 23.0322 38.5326 14.2848
224 1 1 24.1122 36.5094 14.3334
225 1 1 24.2244 34.869 10.8324
226 1 1 27.3732 41.0154 11.6034
227 1 1 22.8054 32.5674 10.224
228 1 1 26.7852 38.07 14.1198
229 1 1 29.3148 37.0716 11.6952
230 1 1 20.0754 33.3168 16.1112
231 1 1 23.8734 40.6074 13.197
232 1 1 20.1882 41.4084 13.5918
233 1 1 28.5816 40.8594 11.9268
234 1 1 25.629 38.7024 13.3584
235 1 1 26.9472 42.3534 15.7488
236 1 1 22.1604 36.6186 12.6972
237 1 1 26.2248 41.1882 12.4338
238 1 1 24.2232 32.7888 9.6816
239 1 1 21.9882 39.114 12.1938
240 1 1 28.875 40.7934 13.3914
241 1 1 24.7476 38.0454 12.3
242 1 1 21.588 40.056 15.918
243 1 1 25.6158 40.305 13.5498
244 1 1 23.676 40.725 14.7546
245 1 1 24.3384 42.0546 15.2064
246 1 1 21.1746 37.9398 12.8568
247 1 1 22.2918 33.786 11.0094
248 1 1 21.8112 41.2146 13.4898
249 1 1 29.2662 33.6936 10.5438
250 1 1 26.8614 42.4116 13.182
251 1 1 27.7044 32.8908 12.0426
252 1 1 25.458 33.1626 11.6898
253 1 1 26.6316 39.8298 10.968
254 1 1 29.6502 42.1626 11.2716
255 1 1 24.615 34.341 11.9658
256 1 1 20.7858 35.0226 13.3752
257 1 1 25.3458 35.7618 14.0226
258 1 1 20.5164 36.7596 15.1542
259 1 1 19.4676 36.9474 16.3494
260 1 1 20.6082 38.034 14.373
261 1 1 22.8402 32.8572 13.2546
262 1 1 23.634 38.7024 11.487
263 1 1 29.2392 39.5982 11.0916
264 1 1 21.9072 35.715 13.542
265 1 1 26.7696 37.1898 11.1504
266 1 1 29.5314 34.5516 11.7132
267 1 1 23.202 33.7632 12.213
268 1 1 23.3652 37.4136 13.284
269 1 1 19.224 39.9684 15.2172
270 1 1 25.5954 33.0102 13.1298
271 1 1 27.9696 39.867 14.1984
272 1 1 19.7838 35.8914 14.2032
273 1 1 19.4292 41.3688 14.9286
274 1 1 26.5944 40.5912 14.7078
275 1 1 22.4958 36.483 11.1726
276 1 1 22.2426 42.5976 15.6132
277 1 1 19.7988 33.4116 14.6508
278 1 1 22.8354 35.7894 14.6628
279 1 1 19.8156 41.6946 16.3866
280 1 1 22.2084 41.199 14.8926
281 1 1 25.4196 35.49 12.4794
282 1 1 24.0912 32.6148 14.0382
283 1 1 24.5094 36.6132 10.4838
284 1 1 23.3694 42.5118 16.6866
285 1 1 19.3578 39.027 14.31
286 1 1 28.5216 38.3082 11.0916
287 1 1 25.6752 42.255 15.996
288 1 1 24.4638 38.8596 14.7342
289 1 1 23.4696 37.5174 10.6152
290 1 1 25.3818 36.8448 11.622
291 1 1 27.7752 38.673 13.509
292 1 1 29.0286 41.9862 14.1264
293 1 1 22.6872 39.6504 13.2378
294 1 1 20.1642 40.383 17.3436
295 1 1 27.6156 42.669 14.3694
296 1 1 20.37 34.749 11.8746
297 1 1 21.1152 42.9186 16.641
298 1 1 27.1758 38.4912 11.7228
299 1 1 20.7726 33.507 11.4822
300 1 1 21.822 38.598 15.273
301 1 1 21.5214 42.7242 18.15
302 1 1 20.2932 39.5478 16.2798
303 1 1 19.9278 38.3082 17.1204
304 1 1 29.6292 45.3456 14.9364
305 1 1 22.422 43.8864 14.8002
306 1 1 24.1212 45.948 17.6652
307 1 1 28.7586 44.2506 12.8694
308 1 1 20.2974 45.2454 17.0826
309 1 1 23.2518 44.739 15.2436
310 1 1 28.023 47.5854 19.1544
311 1 1 28.4394 45.2538 13.9254
312 1 1 25.0104 48.3012 18.6072
313 1 1 19.95 43.908 16.3956
314 1 1 27.3792 47.1414 17.787
315 1 1 25.365 45.6564 17.3568
316 1 1 23.5836 43.8906 17.4762
317 1 1 25.0992 44.0586 17.4048
318 1 1 23.8044 47.4816 17.9748
319 1 1 29.1084 48.5844 19.254
320 1 1 28.2426 44.4924 17.007
321 1 1 22.7232 47.4096 19.0056
322 1 1 27.672 44.7786 18.4506
323 1 1 19.9578 44.9184 18.378
324 1 1 22.923 44.9922 16.7178
325 1 1 26.2098 44.6742 13.62
326 1 1 27.8274 43.4232 12.0384
327 1 1 26.7882 47.1048 15.8868
328 1 1 25.7862 43.7232 16.1292
329 1 1 19.2348 43.566 18.2892
330 1 1 23.8512 45.3174 19.0554
331 1 1 29.6124 43.248 13.6542
332 1 1 23.1942 43.98 19.0026
333 1 1 28.5354 46.1886 19.1844
334 1 1 25.617 43.3686 13.2918
335 1 1 26.5818 45.9228 18.3402
336 1 1 26.8242 49.1676 18.4512
337 1 1 28.3098 47.1744 16.2384
338 1 1 26.4708 48.3846 17.5266
339 1 1 28.893 45.8166 16.275
340 1 1 24.0438 43.275 14.2092
341 1 1 29.4444 49.5192 18.0132
342 1 1 25.5966 45.3516 14.76
343 1 1 27.5058 44.1858 14.1762
344 1 1 21.6732 45.96 16.842
345 1 1 24.519 44.2662 14.9172
346 1 1 27.0216 44.3052 16.122
347 1 1 26.3154 45.6144 15.825
348 1 1 18.4914 42.924 19.4514
349 1 1 18.9918 34.6872 14.8368
350 1 1 13.3086 35.3016 17.6736
351 1 1 17.0946 41.682 18.9366
352 1 1 16.0518 42.5508 19.3416
353 1 1 18.0636 33.6702 12.849
354 1 1 18.7818 32.6448 17.1954
355 1 1 17.4378 36.7182 19.2078
356 1 1 17.694 34.5882 13.9638
357 1 1 14.2296 37.464 18.7464
358 1 1 14.8116 39.9012 18.6642
359 1 1 16.6038 36.3762 18.0576
360 1 1 17.3022 40.9176 16.341
361 1 1 14.7462 34.65 17.4408
362 1 1 14.3628 33.1296 17.643
363 1 1 13.083 36.8022 18.0144
364 1 1 17.7636 33.7632 17.145
365 1 1 18.3342 37.2798 15.7146
366 1 1 17.013 34.0038 18.5484
367 1 1 17.973 37.5222 14.1828
368 1 1 15.906 38.5926 15.6078
369 1 1 17.7864 39.6552 15.5538
370 1 1 13.7622 38.7282 18.5982
371 1 1 16.0344 36.2778 15.8034
372 1 1 15.1326 33.0816 16.4196
373 1 1 16.6014 32.8392 19.4298
374 1 1 13.008 34.5444 18.966
375 1 1 18.5628 36.5838 13.386
376 1 1 12.4848 33.2346 18.8166
377 1 1 19.1916 40.4106 18.5712
378 1 1 15.9192 34.9998 18.426
379 1 1 15.3354 40.2498 17.4558
380 1 1 16.122 38.6634 18.537
381 1 1 17.4036 36.3654 16.4124
382 1 1 15.459 37.3524 17.9172
383 1 1 18.2412 35.0634 16.4508
384 1 1 18.3192 41.7 18.5646
385 1 1 17.2956 38.6778 16.1964
386 1 1 16.7748 40.875 17.5884
387 1 1 18.753 38.7072 18.0738
388 1 1 16.8984 33.5604 14.7966
389 1 1 18.4536 42.1512 16.9836
390 1 1 15.2394 37.4538 16.3758
391 1 1 17.3394 39.1542 17.5218
392 1 1 16.557 33.771 16.2684
393 1 1 15.5976 34.8072 16.1112
394 1 1 29.9364 46.2954 17.067
395 1 1 18.6654 43.596 17.0412
396 1 1 29.9232 46.2426 18.5412
397 1 1 16.9878 43.6176 19.467
398 1 1 29.5746 13.2996 25.6086
399 1 1 28.5678 13.473 20.7858
400 1 1 24.021 13.6824 28.3686
401 1 1 19.4568 14.2224 27.7074
402 1 1 21.438 17.091 20.9304
403 1 1 25.8468 18.753 20.1594
404 1 1 22.9902 12.7872 25.9854
405 1 1 27.8496 14.6292 24.1566
406 1 1 22.9626 17.2566 24.7518
407 1 1 24.0882 15.063 25.167
408 1 1 28.0044 15.357 29.8446
409 1 1 20.7876 19.7682 20.1576
410 1 1 21.4338 18.177 22.0458
411 1 1 27.4266 17.079 19.8648
412 1 1 28.4412 13.2756 24.5934
413 1 1 29.4336 15.6744 22.536
414 1 1 24.0882 18.5358 21.378
415 1 1 25.0542 15.9294 29.4114
416 1 1 20.5506 15.9192 21.1572
417 1 1 27.2022 14.931 28.5816
418 1 1 26.9088 15.8052 20.3166
419 1 1 25.4856 13.4508 28.038
420 1 1 25.0512 12.2412 27.828
421 1 1 19.9182 20.913 20.6988
422 1 1 19.3656 14.0796 29.1888
423 1 1 23.7858 15.2544 28.6764
424 1 1 19.848 18.8346 19.8522
425 1 1 28.185 12.5562 27.7056
426 1 1 22.6338 15.4392 29.7036
427 1 1 22.1808 15.3144 23.5704
428 1 1 27.7812 12.8394 29.1876
429 1 1 22.971 13.0314 27.51
430 1 1 22.3536 17.5854 23.079
431 1 1 24.6054 16.6716 23.22
432 1 1 22.2774 16.2594 26.7336
433 1 1 26.1492 12.2934 24.7944
434 1 1 26.6382 15.2376 25.0104
435 1 1 21.3318 16.587 23.3718
436 1 1 26.7708 14.9448 26.5902
437 1 1 19.5024 18.5604 23.958
438 1 1 21.9186 19.4592 21.234
439 1 1 28.8858 14.3916 21.8904
440 1 1 27.0096 11.8446 30.0498
441 1 1 28.515 17.3142 20.5674
442 1 1 23.7924 12.9966 29.6934
443 1 1 25.3722 14.367 24.612
444 1 1 20.235 15.525 25.5924
445 1 1 19.3566 15.5196 26.8776
446 1 1 20.73 16.7802 24.8136
447 1 1 29.1882 15.1668 23.991
448 1 1 23.6118 17.3934 22.26
449 1 1 19.995 18.036 22.6176
450 1 1 22.1796 13.9236 23.9604
451 1 1 20.7858 17.5482 19.8702
452 1 1 25.6308 15.2418 19.8492
453 1 1 21.7428 14.8464 26.3496
454 1 1 26.805 15.888 21.7818
455 1 1 29.7456 12.8652 22.311
456 1 1 20.2068 16.2456 22.3308
457 1 1 23.7138 16.1046 24.225
458 1 1 28.7478 13.9974 30.1788
459 1 1 19.242 18.5598 25.806
460 1 1 23.4222 16.4016 27.324
461 1 1 26.5092 13.605 29.112
462 1 1 23.2572 18.9102 20.1444
463 1 1 22.398 15.0924 22.0182
464 1 1 28.218 15.033 27.048
465 1 1 26.2932 15.8088 28.6068
466 1 1 22.797 14.211 25.3338
467 1 1 25.3296 14.2044 23.0424
468 1 1 27.5604 14.5626 22.7598
469 1 1 29.0772 13.7034 27.1218
470 1 1 24.7446 15.2718 21.1476
471 1 1 19.4202 17.5362 24.8784
472 1 1 28.6356 17.0118 22.0668
473 1 1 23.9754 16.2624 26.0142
474 1 1 22.6638 16.722 20.2128
475 1 1 23.5074 16.1718 21.408
476 1 1 25.3362 15.603 22.3368
477 1 1 21.4716 15.2172 28.6194
478 1 1 26.946 18.327 20.6148
479 1 1 25.4652 13.1676 25.5366
480 1 1 26.5302 13.5468 22.9194
481 1 1 27.6486 12.0678 25.1556
482 1 1 21.4242 14.067 27.5844
483 1 1 27.2142 17.1618 22.4922
484 1 1 21.8532 17.3232 25.74
485 1 1 26.1702 16.0452 27.1914
486 1 1 27.0402 12.4152 26.523
487 1 1 21.1764 16.6248 28.1142
488 1 1 20.2572 18.2862 27.0288
489 1 1 19.7004 17.0322 27.7992
490 1 1 26.0922 13.5324 26.6724
491 1 1 12.7218 20.103 29.9388
492 1 1 17.1312 20.1732 29.4648
493 1 1 16.1904 21.2124 29.844
494 1 1 16.872 19.5618 22.077
495 1 1 17.3568 15.48 30.036
496 1 1 14.9658 18.294 29.562
497 1 1 14.5506 20.2302 22.1736
498 1 1 17.2476 20.2134 27.2952
499 1 1 15.0894 18.573 26.5398
500 1 1 17.8296 21.3414 21.813
501 1 1 18.1248 19.6536 22.4622
502 1 1 14.4408 21.5178 21.3696
503 1 1 18.5478 16.377 29.9496
504 1 1 18.279 16.2828 26.9586
505 1 1 15.882 20.0316 23.0436
506 1 1 18.1086 16.6914 24.741
507 1 1 18.4182 19.2462 23.973
508 1 1 14.9886 21.309 29.0658
509 1 1 15.879 17.2116 26.4294
510 1 1 18.0438 18.0672 25.9296
511 1 1 19.206 20.6796 21.9486
512 1 1 17.3916 19.713 20.0022
513 1 1 18.7686 18.3846 21.7584
514 1 1 18.5682 18.7452 20.4042
515 1 1 17.547 18.4098 24.7476
516 1 1 15.3162 19.053 28.263
517 1 1 16.1388 17.301 29.2674
518 1 1 13.692 32.4336 24.7674
519 1 1 17.2506 17.4078 27.0096
520 1 1 12.6216 21.0936 27.5022
521 1 1 17.0874 20.508 21.2148
522 1 1 16.8846 19.3776 28.203
523 1 1 18.7776 17.8446 28.92
524 1 1 16.8876 17.2212 24.0516
525 1 1 13.5336 21.3768 30.1308
526 1 1 14.7684 20.5572 28.029
527 1 1 17.247 17.8878 28.4592
528 1 1 14.0436 23.421 20.1786
529 1 1 12.6222 30.651 29.7102
530 1 1 17.829 24.2028 20.7792
531 1 1 13.455 24.5784 28.593
532 1 1 13.1364 28.3986 27.5634
533 1 1 12.171 29.5074 27.6996
534 1 1 15.342 24.0534 19.791
535 1 1 15.105 29.3568 20.04
536 1 1 12.6756 23.6826 26.1618
537 1 1 12.2154 27.957 24.7122
538 1 1 13.3632 25.7838 25.062
539 1 1 13.353 24.3396 21.2994
540 1 1 10.7352 28.9704 22.1292
541 1 1 16.6788 27.7656 19.8144
542 1 1 13.5378 29.0214 20.9466
543 1 1 14.4504 31.0026 22.0608
544 1 1 11.988 31.2408 21.9294
545 1 1 16.1112 26.3958 20.4096
546 1 1 13.3296 30.0672 23.991
547 1 1 14.8902 24.108 27.981
548 1 1 9.5436 30.6066 24.4314
549 1 1 13.0062 22.4136 28.3278
550 1 1 14.457 22.3368 28.0536
551 1 1 14.5902 32.3466 21.3588
552 1 1 12.9948 26.118 28.5858
553 1 1 12.3852 28.212 29.844
554 1 1 11.9676 25.962 29.5326
555 1 1 11.6466 25.977 23.4498
556 1 1 12.7542 23.715 27.72
557 1 1 11.6868 28.314 22.9272
558 1 1 14.0232 27.5046 22.9518
559 1 1 11.4822 26.5824 26.8848
560 1 1 11.451 31.5582 23.2446
561 1 1 11.1516 29.328 26.5968
562 1 1 15.444 23.1252 24.4506
563 1 1 12.7338 30.4932 25.2402
564 1 1 10.4496 27.0762 23.4582
565 1 1 11.1156 30.5832 24.3744
566 1 1 18.6078 22.9932 21.2214
567 1 1 12.9528 30.849 27.903
568 1 1 17.1066 22.1814 22.8318
569 1 1 14.6832 22.5726 22.4526
570 1 1 16.4628 23.5212 20.652
571 1 1 15.228 22.3698 26.7846
572 1 1 11.2734 30.1194 21.1584
573 1 1 13.7562 23.8338 22.5138
574 1 1 13.6482 28.7832 26.3718
575 1 1 13.1484 23.7774 29.832
576 1 1 14.6844 24.996 24.651
577 1 1 16.056 23.1594 22.119
578 1 1 9.9876 27.3354 24.96
579 1 1 12.2562 22.1166 24.2424
580 1 1 13.065 28.0716 22.0968
581 1 1 11.169 30.9228 29.4648
582 1 1 11.5878 24.534 24.0708
583 1 1 15.021 25.5756 19.8168
584 1 1 10.8246 25.401 26.2332
585 1 1 12.2484 23.3154 23.37
586 1 1 12.5154 22.4622 29.7336
587 1 1 12.7722 26.8092 24.0738
588 1 1 14.7984 22.1082 23.9514
589 1 1 12.753 26.8464 27.2106
590 1 1 13.125 30.9372 22.7064
591 1 1 12.5052 29.646 20.1924
592 1 1 14.7246 29.5608 21.2922
593 1 1 11.7192 25.7154 21.8622
594 1 1 11.31 32.0496 26.2728
595 1 1 12.3252 24.7914 25.416
596 1 1 9.45 31.1004 27.081
597 1 1 11.5332 30.6462 25.7364
598 1 1 14.7288 24.9792 23.0604
599 1 1 14.178 25.8582 21.1152
600 1 1 12.5148 32.0274 27.0672
601 1 1 13.791 26.8518 26.4498
602 1 1 12.0684 27.2832 20.0736
603 1 1 13.5198 27.8304 25.449
604 1 1 13.0134 26.8626 21.3294
605 1 1 14.7216 26.2428 22.2726
606 1 1 10.7736 25.9152 28.6218
607 1 1 16.293 29.046 20.4822
608 1 1 14.997 23.6796 25.5144
609 1 1 16.0926 24.3612 22.9488
610 1 1 12.2424 29.1648 24.0336
611 1 1 9.6834 29.8962 28.0488
612 1 1 10.1988 32.0958 27.4164
613 1 1 10.7862 24.831 27.5616
614 1 1 13.8738 22.7826 25.5582
615 1 1 10.9896 28.1196 29.3142
616 1 1 11.1666 27.8568 25.8294
617 1 1 10.542 32.2122 28.8918
618 1 1 10.4844 27.375 28.1658
619 1 1 9.8376 29.0226 27.093
620 1 1 11.0172 29.6184 28.6536
621 1 1 23.4264 19.9206 19.026
622 1 1 23.916 17.9742 17.0058
623 1 1 22.5216 18.7446 17.0736
624 1 1 28.236 15.1872 19.2024
625 1 1 25.1292 16.026 18.6672
626 1 1 25.6428 18.2628 18.6684
627 1 1 27.9444 19.989 16.4232
628 1 1 25.8684 18.4548 15.7644
629 1 1 26.9472 20.9898 15.7488
630 1 1 29.1174 16.5042 19.4562
631 1 1 23.1534 17.5728 19.4094
632 1 1 28.875 19.4292 13.3914
633 1 1 23.676 19.3608 14.7546
634 1 1 24.3384 20.6904 15.2064
635 1 1 23.0502 20.0478 17.6244
636 1 1 26.8614 21.0474 13.182
637 1 1 28.458 18.4992 15.4674
638 1 1 24.453 17.268 18.5784
639 1 1 24.5778 18.2004 15.8004
640 1 1 21.6306 20.0754 18.8382
641 1 1 29.6604 19.0008 18.759
642 1 1 25.9044 19.2156 17.1492
643 1 1 26.5944 19.2276 14.7078
644 1 1 26.7654 17.139 18.5574
645 1 1 22.2426 21.2334 15.6132
646 1 1 26.0826 15.609 17.8632
647 1 1 19.8156 20.3304 16.3866
648 1 1 22.2084 19.8348 14.8926
649 1 1 27.8616 17.3202 16.2372
650 1 1 23.3694 21.1476 16.6866
651 1 1 27.327 19.3758 17.634
652 1 1 25.6752 20.8914 15.996
653 1 1 29.2446 17.622 18.3084
654 1 1 29.0286 20.622 14.1264
655 1 1 20.1642 19.0188 17.3436
656 1 1 27.6156 21.3048 14.3694
657 1 1 21.1152 21.555 16.641
658 1 1 29.2062 20.7048 16.9614
659 1 1 25.116 20.5506 17.0868
660 1 1 21.8544 17.6766 18.6414
661 1 1 21.5214 21.3606 18.15
662 1 1 27.774 17.8212 17.7078
663 1 1 21.5472 19.0638 17.853
664 1 1 29.6292 23.982 14.9364
665 1 1 22.422 22.5228 14.8002
666 1 1 28.7586 22.8864 12.8694
667 1 1 19.3284 24.7776 17.1462
668 1 1 21.0504 22.7382 13.9626
669 1 1 20.2974 23.8812 17.0826
670 1 1 25.8744 29.4462 9.543
671 1 1 23.2518 23.3748 15.2436
672 1 1 27.9684 25.245 13.5048
673 1 1 23.0388 28.1094 14.0754
674 1 1 24.0468 25.839 14.3052
675 1 1 27.5808 30.1608 11.4396
676 1 1 19.9596 31.6542 12.8178
677 1 1 21.2982 29.1102 11.3052
678 1 1 28.4394 23.8902 13.9254
679 1 1 29.3538 26.2962 11.9082
680 1 1 24.066 29.3802 10.6332
681 1 1 19.95 22.5438 16.3956
682 1 1 25.176 30.759 11.4348
683 1 1 22.5888 31.2552 11.094
684 1 1 23.913 30.063 12.9714
685 1 1 20.2662 30.5208 13.7142
686 1 1 28.5558 32.121 11.112
687 1 1 23.5836 22.527 17.4762
688 1 1 28.8342 30.1974 11.913
689 1 1 24.8418 32.058 10.8642
690 1 1 25.3032 28.2498 13.8948
691 1 1 19.2954 24.6288 18.4428
692 1 1 22.0476 25.791 12.663
693 1 1 19.9578 23.5542 18.378
694 1 1 22.923 23.628 16.7178
695 1 1 26.19 30.7236 12.5676
696 1 1 22.1412 28.2918 12.1728
697 1 1 29.1558 30.1848 13.2558
698 1 1 24.5394 27.5376 12.6714
699 1 1 22.116 31.7142 12.5724
700 1 1 25.5264 29.8422 13.7676
701 1 1 26.2098 23.31 13.62
702 1 1 23.64 30.3864 14.3676
703 1 1 26.6052 25.9014 14.4942
704 1 1 21.384 27.102 12.8694
705 1 1 21.8718 30.3396 13.755
706 1 1 26.712 32.2152 13.0272
707 1 1 27.8274 22.059 12.0384
708 1 1 25.509 22.5462 11.9022
709 1 1 19.527 29.2596 13.1706
710 1 1 25.7862 22.359 16.1292
711 1 1 26.5614 29.4198 11.2914
712 1 1 19.2348 22.2024 18.2892
713 1 1 29.016 24.8886 11.2314
714 1 1 29.529 31.3572 11.5938
715 1 1 24.6924 23.859 11.8758
716 1 1 27.9396 30.1566 9.6678
717 1 1 20.9544 24.1482 13.446
718 1 1 28.5492 28.1082 9.6612
719 1 1 25.3746 25.0722 14.0124
720 1 1 20.4948 26.0928 15.1272
721 1 1 29.6124 21.8838 13.6542
722 1 1 19.5828 26.1126 16.4262
723 1 1 20.7384 27.3648 14.289
724 1 1 29.1186 26.0676 13.4178
725 1 1 22.965 22.1538 13.1178
726 1 1 23.7744 27.9792 11.4678
727 1 1 19.956 28.6848 11.8134
728 1 1 29.325 29.1846 11.2968
729 1 1 22.1694 24.6228 13.4388
730 1 1 21.8412 25.4424 15.561
731 1 1 26.934 26.4342 11.1942
732 1 1 29.7552 23.7738 11.6568
733 1 1 29.079 29.235 9.921
734 1 1 21.8262 22.2546 19.1634
735 1 1 23.346 26.8818 13.3008
736 1 1 19.146 29.1888 15.144
737 1 1 25.617 22.005 13.2918
738 1 1 19.6812 25.1982 14.1798
739 1 1 19.3458 30.7638 14.9226
740 1 1 23.8686 30.5166 11.5116
741 1 1 25.371 29.6058 10.7892
742 1 1 19.6542 22.716 14.7966
743 1 1 22.9248 24.8094 14.6886
744 1 1 19.65 31.1004 16.4196
745 1 1 22.2468 30.6438 14.9826
746 1 1 25.5084 24.9678 12.4266
747 1 1 27.51 25.3062 12.177
748 1 1 24.0438 21.9108 14.2092
749 1 1 27.8394 31.1286 10.6314
750 1 1 19.4856 28.1964 14.1348
751 1 1 28.6722 27.7824 11.1396
752 1 1 25.4526 26.277 11.6976
753 1 1 27.6624 27.9018 13.4484
754 1 1 27.0774 29.1666 9.996
755 1 1 25.5966 23.9874 14.76
756 1 1 26.4792 24.138 12.2766
757 1 1 22.7508 29.3286 13.2084
758 1 1 27.5058 22.8216 14.1762
759 1 1 21.6732 24.5958 16.842
760 1 1 27.3486 27.8622 11.877
761 1 1 24.519 22.902 14.9172
762 1 1 21.9144 28.0566 15.1314
763 1 1 27.0216 22.9416 16.122
764 1 1 20.01 28.7376 16.2054
765 1 1 19.8342 27.495 17.1234
766 1 1 18.4914 21.5598 19.4514
767 1 1 17.0946 20.3178 18.9366
768 1 1 16.0518 21.1866 19.3416
769 1 1 19.0338 32.331 13.8432
770 1 1 19.1916 19.0464 18.5712
771 1 1 29.8782 18.4656 15.0534
772 1 1 18.3192 20.3364 18.5646
773 1 1 18.4536 20.787 16.9836
774 1 1 18.9438 24.0162 14.7246
775 1 1 12.4386 30.8352 18.8274
776 1 1 17.1066 31.0974 19.0194
777 1 1 15.9594 31.6824 19.2096
778 1 1 18.6654 22.2318 17.0412
779 1 1 17.4336 25.992 19.2336
780 1 1 14.3172 26.796 18.6738
781 1 1 14.7936 28.953 18.5412
782 1 1 16.3644 25.56 18.4494
783 1 1 17.1036 30.5112 16.0578
784 1 1 15.0492 29.1042 15.8838
785 1 1 16.1352 31.0752 15.4188
786 1 1 12.3366 28.4172 19.3338
787 1 1 17.4654 23.1756 16.9476
788 1 1 18.1224 26.8998 15.7044
789 1 1 16.9002 23.5032 18.681
790 1 1 18.246 27.2856 14.1588
791 1 1 18.2988 30.0006 13.3182
792 1 1 14.916 31.8936 18.1362
793 1 1 15.8316 27.8334 15.5814
794 1 1 17.7606 29.2914 15.2226
795 1 1 13.563 28.155 18.2952
796 1 1 16.3152 25.6698 15.7254
797 1 1 16.9878 22.2534 19.467
798 1 1 18.555 26.0094 13.3914
799 1 1 17.9178 24.5766 19.263
800 1 1 17.4024 29.001 13.8624
801 1 1 15.789 24.3276 18.525
802 1 1 15.2706 29.5278 17.4558
803 1 1 16.077 28.089 18.402
804 1 1 17.6418 25.602 16.3698
805 1 1 15.6336 26.658 17.8908
806 1 1 18.3054 24.3246 16.4622
807 1 1 17.3052 28.1424 16.0758
808 1 1 16.7298 30.069 17.5338
809 1 1 14.9526 31.617 15.8622
810 1 1 18.555 28.2054 18.1788
811 1 1 13.3704 32.1564 19.107
812 1 1 18.4218 31.2552 14.1456
813 1 1 16.92 31.7784 14.4888
814 1 1 18.4152 31.2432 17.118
815 1 1 14.3424 30.5322 17.7696
816 1 1 15.3474 26.6454 16.3824
817 1 1 17.2314 28.6488 17.5932
818 1 1 46.0998 34.2996 20.2068
819 1 1 44.5776 41.4564 29.6334
820 1 1 49.1364 41.6298 29.4006
821 1 1 47.1018 35.046 19.6242
822 1 1 48.1488 42.5994 29.8086
823 1 1 49.2138 35.9934 24.1566
824 1 1 45.4014 35.2074 21.0822
825 1 1 49.3686 36.7212 29.8446
826 1 1 42.1518 41.1318 20.1576
827 1 1 47.8266 38.1204 25.0356
828 1 1 49.8054 34.6392 24.5934
829 1 1 45.4524 39.9 21.378
830 1 1 46.4184 37.2936 29.4114
831 1 1 47.064 39.705 29.4882
832 1 1 46.542 41.3154 22.0566
833 1 1 43.9572 41.9406 22.0182
834 1 1 48.5658 36.2952 28.5816
835 1 1 48.2724 37.1688 20.3166
836 1 1 45.4878 40.5258 24.603
837 1 1 47.2962 40.0746 26.697
838 1 1 46.8498 34.8144 28.038
839 1 1 41.2824 42.2772 20.6988
840 1 1 46.3842 42.6432 21.4878
841 1 1 46.6212 38.7966 24.3972
842 1 1 48.336 41.7834 26.133
843 1 1 50.469 37.8144 29.9412
844 1 1 41.2116 40.1982 19.8522
845 1 1 49.5492 33.9204 27.7056
846 1 1 50.2476 37.5084 26.346
847 1 1 49.1454 34.203 29.1876
848 1 1 47.5974 41.4468 23.0646
849 1 1 45.75 32.5296 20.4432
850 1 1 45.9696 38.0358 23.22
851 1 1 43.5504 42.4146 23.4
852 1 1 46.8636 42.7926 29.1066
853 1 1 46.851 40.29 24.228
854 1 1 47.5134 33.6576 24.7944
855 1 1 45.069 41.2668 25.842
856 1 1 45.8754 42.5514 25.899
857 1 1 48.0018 36.6012 25.0104
858 1 1 43.3518 41.2992 24.3456
859 1 1 44.8554 41.5302 28.0854
860 1 1 49.0074 32.8338 22.9518
861 1 1 47.8818 38.6196 26.4222
862 1 1 46.8186 33.2124 22.5042
863 1 1 45.9768 38.6778 29.6118
864 1 1 48.6864 33.9012 20.6808
865 1 1 48.135 36.309 26.5902
866 1 1 47.1372 33.1224 26.6682
867 1 1 43.2828 40.8228 21.234
868 1 1 47.8728 39.8802 21.936
869 1 1 48.3738 33.2088 30.0498
870 1 1 45.6138 34.56 22.5198
871 1 1 45.7764 39.7548 26.604
872 1 1 46.7364 35.7312 24.612
873 1 1 48.1914 33.582 22.0926
874 1 1 44.976 38.757 22.26
875 1 1 42.1494 38.9124 19.8702
876 1 1 46.995 36.606 19.8492
877 1 1 48.1692 37.2522 21.7818
878 1 1 50.112 35.3616 30.1788
879 1 1 47.076 32.5434 23.8458
880 1 1 45.186 41.1498 22.0578
881 1 1 44.0106 35.4606 19.9512
882 1 1 47.8728 34.9692 29.112
883 1 1 47.3496 40.428 28.1484
884 1 1 48.1416 40.8624 24.8436
885 1 1 44.6214 40.2738 20.1444
886 1 1 48.6222 38.1762 29.0748
887 1 1 46.7508 40.1286 21.405
888 1 1 49.5822 36.3972 27.048
889 1 1 43.272 42.7926 26.4372
890 1 1 47.6574 37.173 28.6068
891 1 1 46.6938 35.5686 23.0424
892 1 1 48.924 35.9262 22.7598
893 1 1 50.4408 35.0676 27.1218
894 1 1 46.1082 36.6354 21.1476
895 1 1 49.3458 38.943 26.967
896 1 1 44.5518 42.6882 27.1284
897 1 1 44.0274 38.0862 20.2128
898 1 1 48.6936 40.686 28.3344
899 1 1 46.9758 42.2082 26.775
900 1 1 45.5496 38.8938 25.3692
901 1 1 44.8716 37.536 21.408
902 1 1 46.7004 36.9666 22.3368
903 1 1 48.924 38.4858 24.2664
904 1 1 45.6198 42.9252 29.832
905 1 1 46.8294 34.5312 25.5366
906 1 1 47.8944 34.911 22.9194
907 1 1 44.3802 39.8394 23.958
908 1 1 49.0128 33.432 25.1556
909 1 1 48.5778 38.5254 22.4922
910 1 1 46.4766 41.6142 28.2006
911 1 1 47.5344 37.4088 27.1914
912 1 1 49.2744 39.198 28.2414
913 1 1 48.4044 33.7794 26.523
914 1 1 47.4564 34.8966 26.6724
915 1 1 43.482 43.8846 25.4238
916 1 1 45.4752 46.1082 28.344
917 1 1 40.8564 46.1322 27.8676
918 1 1 42.2724 44.22 24.6168
919 1 1 41.7576 45.1602 27.9048
920 1 1 44.6814 45.0168 26.1576
921 1 1 44.5572 43.1412 21.519
922 1 1 46.782 45.2994 28.0188
923 1 1 44.8626 43.8564 28.1586
924 1 1 46.428 43.8276 28.1454
925 1 1 40.686 45.8562 29.2308
926 1 1 44.0436 47.4294 29.6796
927 1 1 43.4658 47.1546 23.2872
928 1 1 44.4078 45.2472 27.6006
929 1 1 43.4304 48.1602 26.7768
930 1 1 43.836 44.2848 21.9894
931 1 1 46.929 43.7898 26.73
932 1 1 42.0312 45.8682 23.8968
933 1 1 45.0984 45.1938 29.8926
934 1 1 41.8404 47.505 25.8978
935 1 1 40.8078 47.8032 27.0396
936 1 1 42.0486 48.6612 24.9822
937 1 1 44.5188 43.6068 24.3618
938 1 1 43.4934 45.843 23.9298
939 1 1 43.101 46.8144 26.3868
940 1 1 43.2156 43.4814 30.057
941 1 1 41.424 48.2478 22.3332
942 1 1 44.4102 44.7816 23.2926
943 1 1 44.5938 43.8612 29.5566
944 1 1 29.9544 51.0786 29.1264
945 1 1 41.1264 46.65 24.8742
946 1 1 41.7222 46.6662 29.703
947 1 1 44.1534 46.182 25.3368
948 1 1 45.9708 43.416 24.7608
949 1 1 40.8366 49.7046 25.1598
950 1 1 42.8844 47.1324 28.8738
951 1 1 41.6346 45.459 22.4442
952 1 1 42.999 45.903 27.5568
953 1 1 46.0326 44.391 25.7466
954 1 1 42.909 48.4614 28.113
955 1 1 41.4504 48.99 27.8838
956 1 1 40.3584 45.4284 25.5462