LAMMPS (22 Jul 2025)
KOKKOS mode with Kokkos version 4.6.2 is enabled
  will use up to 1 GPU(s) per node
WARNING: When using a single thread, the Kokkos Serial backend (i.e. Makefile.kokkos_mpi_only) gives better performance than the OpenMP backend (src/KOKKOS/kokkos.cpp:221)
  using 1 OpenMP thread(s) per MPI task
Reading data file ...
  orthogonal box = (0 0 0) to (60 60 60)
  1 by 1 by 1 MPI processor grid
  reading atoms ...
  7958 atoms
  scanning bonds ...
  2 = max bonds/atom
  orthogonal box = (0 0 0) to (60 60 60)
  1 by 1 by 1 MPI processor grid
  reading bonds ...
  1755 bonds
Finding 1-2 1-3 1-4 neighbors ...
  special bond factors lj:    0        0        0       
  special bond factors coul:  0        0        0       
     2 = max # of 1-2 neighbors
     1 = max # of 1-3 neighbors
     1 = max # of 1-4 neighbors
     2 = max # of special neighbors
  special bonds CPU = 0.004 seconds
  read_data CPU = 0.058 seconds
Reading eam potential file Cu_u3.eam with DATE: 2007-06-11
WARNING: Fix property/atom mol, charge, rmass, temperature, or heatflow w/out ghost communication (src/fix_property_atom.cpp:206)
Starting energy minimization...
Switching to 'neigh_modify every 1 delay 0 check yes' setting during minimization
PPPM Kokkos initialization ...
WARNING: Using kspace solver on system with no charge (src/kspace.cpp:317)
  using 12-bit tables for long-range coulomb
  G vector (1/distance) = 0.0001
  grid = 1 1 1
  stencil order = 5
  estimated absolute RMS force accuracy = 0
  estimated relative force accuracy = 0
  using double precision cuFFT
  3d grid and FFT values/proc = 216 1
WARNING: Using a manybody potential with bonds/angles/dihedrals and special_bond exclusions (src/pair.cpp:250)
Neighbor list info ...
  update: every = 1 steps, delay = 0 steps, check = yes
  max neighbors/atom: 2000, page size: 100000
  master list distance cutoff = 10.3
  ghost atom cutoff = 10.3
  binsize = 10.3, bins = 6 6 6
  2 neighbor lists, perpetual/occasional/extra = 2 0 0
  (1) pair eam, perpetual, skip from (2)
      attributes: half, newton on, kokkos_device
      pair build: skip/kk/device
      stencil: none
      bin: none
  (2) pair lj/cut/coul/long, perpetual
      attributes: half, newton on, kokkos_device, cut 10.3
      pair build: half/bin/newton/kk/device
      stencil: half/bin/3d
      bin: kk/device
Setting up cg/kk style minimization ...
  Unit style    : metal
  Current step  : 0
WARNING: Fix property/atom/kk not compatible with sending data in Kokkos communication (src/KOKKOS/comm_kokkos.cpp:766)
WARNING: Fix with atom-based arrays not compatible with sending data in Kokkos communication, switching to classic exchange/border communication (src/KOKKOS/comm_kokkos.cpp:779)
WARNING: Fix property/atom/kk not compatible with Kokkos sorting on device (src/KOKKOS/atom_kokkos.cpp:212)
WARNING: Fix with atom-based arrays not compatible with Kokkos sorting on device, switching to classic host sorting (src/KOKKOS/atom_kokkos.cpp:218)
WARNING: Inconsistent image flags
For more information see https://docs.lammps.org/err0027 (src/domain.cpp:1052)
Per MPI rank memory allocation (min/avg/max) = 8.842 | 8.842 | 8.842 Mbytes
   Step          CPU          CPULeft          Temp          Press          Volume         TotEng         PotEng         KinEng    
         0   0              0              0              2.0905644e+09  216000         70279854       70279854       0            
       100   0.41391397     3.7252468      0              2023594.3      216000         52389.763      52389.763      0            
       200   0.7325346      2.9301541      0              826595.54      216000         15810.439      15810.439      0            
       300   1.2732422      2.9709042      0              225912.17      216000        -1362.4675     -1362.4675      0            
       400   1.9463855      2.9195821      0              76866.04       216000        -5135.692      -5135.692       0            
       500   2.5646663      2.5646681      0              40403.484      216000        -5970.1274     -5970.1274      0            
       600   3.1638011      2.1092031      0              25826.647      216000        -6325.3618     -6325.3618      0            
       700   3.7374754      1.601776       0              17883.738      216000        -6530.1146     -6530.1146      0            
       800   4.3032544      1.0758142      0              13257.469      216000        -6665.0139     -6665.0139      0            
       870   4.7073486      0.70339717     0              10833.41       216000        -6734.9921     -6734.9921      0            
Loop time of 4.70737 on 1 procs for 870 steps with 7958 atoms

99.1% CPU use with 1 MPI tasks x 1 OpenMP threads

Minimization stats:
  Stopping criterion = energy tolerance
  Energy initial, next-to-last, final = 
      70279854.4092554  -6734.33309514889  -6734.99205495993
  Force two-norm initial, final = 18214422 29.030141
  Force max component initial, final = 5182450 3.9142728
  Final line search alpha, max atom move = 0.0080438047 0.031485646
  Iterations, force evaluations = 870 1479

MPI task timing breakdown:
Section |  min time  |  avg time  |  max time  |%varavg| %total
---------------------------------------------------------------
Pair    | 3.5492     | 3.5492     | 3.5492     |   0.0 | 75.40
Bond    | 0.047929   | 0.047929   | 0.047929   |   0.0 |  1.02
Kspace  | 0.001985   | 0.001985   | 0.001985   |   0.0 |  0.04
Neigh   | 0.56032    | 0.56032    | 0.56032    |   0.0 | 11.90
Comm    | 0.34344    | 0.34344    | 0.34344    |   0.0 |  7.30
Output  | 0.0017081  | 0.0017081  | 0.0017081  |   0.0 |  0.04
Modify  | 0          | 0          | 0          |   0.0 |  0.00
Other   |            | 0.2028     |            |       |  4.31

Nlocal:           7958 ave        7958 max        7958 min
Histogram: 1 0 0 0 0 0 0 0 0 0
Nghost:          12271 ave       12271 max       12271 min
Histogram: 1 0 0 0 0 0 0 0 0 0
Neighs:         701956 ave      701956 max      701956 min
Histogram: 1 0 0 0 0 0 0 0 0 0

Total # of neighbors = 701956
Ave neighs/atom = 88.20759
Ave special neighs/atom = 0.5885901
Neighbor list builds = 229
Dangerous builds = 0
Starting NVT equilibration...
PPPM Kokkos initialization ...
  using 12-bit tables for long-range coulomb
  G vector (1/distance) = 0.0001
  grid = 1 1 1
  stencil order = 5
  estimated absolute RMS force accuracy = 0
  estimated relative force accuracy = 0
  using double precision cuFFT
  3d grid and FFT values/proc = 216 1
WARNING: Using a manybody potential with bonds/angles/dihedrals and special_bond exclusions (src/pair.cpp:250)
Setting up Verlet run ...
  Unit style    : metal
  Current step  : 870
  Time step     : 0.001
WARNING: Fix property/atom/kk not compatible with Kokkos sorting on device (src/KOKKOS/atom_kokkos.cpp:212)
WARNING: Fix with atom-based arrays not compatible with Kokkos sorting on device, switching to classic host sorting (src/KOKKOS/atom_kokkos.cpp:218)
WARNING: Inconsistent image flags
For more information see https://docs.lammps.org/err0027 (src/domain.cpp:1052)
Per MPI rank memory allocation (min/avg/max) = 9.324 | 9.324 | 9.324 Mbytes
   Step          CPU          CPULeft          Temp          Press          Volume         TotEng         PotEng         KinEng    
       870   0              0              300            12359.221      216000        -6426.4352     -6734.9921      308.55689    
       900   0.067959413    22.585867      156.96581      15930.489      216000        -6420.4553     -6581.8982      161.44294    
      1000   0.29696555     22.546671      225.53682      16279.985      216000        -6391.7544     -6623.7242      231.9698     
      1100   0.53054446     22.536682      264.35483      14887.312      216000        -6359.3642     -6631.2592      271.89502    
      1200   0.77263995     22.640772      296.00105      14770.707      216000        -6328.7657     -6633.2096      304.44388    
      1300   1.0198897      22.698516      311.47007      16433.915      216000        -6308.6528     -6629.007       320.35412    
      1400   1.2641076      22.58701       317.63651      14512.486      216000        -6319.9098     -6646.6062      326.69645    
      1500   1.500135       22.311556      306.95532      12986.447      216000        -6348.5964     -6664.307       315.71059    
      1600   1.7437495      22.14325       302.00821      13784.944      216000        -6373.9124     -6684.5348      310.62238    
      1700   1.9931286      22.020488      300.45552      12687.257      216000        -6393.91       -6702.9354      309.0254     
      1800   2.2326935      21.774779      295.4055       12674.681      216000        -6408.4804     -6712.3117      303.83134    
      1900   2.4698933      21.509667      303.23847      12075.143      216000        -6419.3906     -6731.2784      311.88774    
      2000   2.7161573      21.320645      302.48582      11641.722      216000        -6430.4228     -6741.5364      311.11362    
      2100   2.9486996      21.024479      304.61118      11832.12       216000        -6440.5455     -6753.8451      313.29959    
      2200   3.186305       20.770886      298.87115      11088.29       216000        -6449.832      -6757.2278      307.39584    
      2300   3.4240894      20.520604      302.25742      12273.686      216000        -6455.0877     -6765.9664      310.8787     
      2400   3.6528883      20.222207      300.18495      11733.921      216000        -6459.9261     -6768.6732      308.74711    
      2500   3.8908814      19.979565      298.8094       10238.618      216000        -6466.1657     -6773.4981      307.33233    
      2600   4.1230814      19.709767      295.90274      10910.397      216000        -6472.0688     -6776.4116      304.34277    
      2700   4.3617639      19.473021      293.56531      10927.793      216000        -6476.3158     -6778.2544      301.93866    
      2800   4.6021161      19.24306       299.50453      10909.996      216000        -6477.9958     -6786.0431      308.04729    
      2900   4.8504397      19.043365      299.6135       11214.147      216000        -6480.5326     -6788.6919      308.15937    
      3000   5.0839987      18.784546      300.38612      11228.402      216000        -6484.4577     -6793.4118      308.95403    
      3100   5.3204746      18.538162      301.86389      9626.8088      216000        -6489.847      -6800.321       310.47394    
      3200   5.5575417      18.294574      303.57549      11017.322      216000        -6498.1772     -6810.4116      312.23436    
      3300   5.7944155      18.050921      302.57119      9552.268       216000        -6506.3263     -6817.5278      311.20142    
      3400   6.0329698      17.812765      300.52002      10059.825      216000        -6511.8526     -6820.9444      309.09175    
      3500   6.2672818      17.562691      300.0648       11311.884      216000        -6512.9433     -6821.5668      308.62354    
      3600   6.5073189      17.329018      302.56214      9597.3273      216000        -6512.1494     -6823.3415      311.19212    
      3700   6.7462094      17.09199       300.13144      10172.867      216000        -6513.2268     -6821.9189      308.69208    
      3800   6.9844404      16.853244      301.60425      10765.457      216000        -6516.4257     -6826.6326      310.2069     
      3900   7.2213555      16.611505      295.28343      9601.6969      216000        -6522.7345     -6826.4403      303.70579    
      4000   7.4561893      16.365505      295.31391      9825.4739      216000        -6528.5302     -6832.2673      303.73714    
      4100   7.6922115      16.122688      294.60599      11203.552      216000        -6530.8245     -6833.8335      303.00902    
      4200   7.9284549      15.880722      296.83604      9468.4976      216000        -6527.5338     -6832.8365      305.30268    
      4300   8.1640366      15.637823      301.48753      9838.4548      216000        -6525.3375     -6835.4243      310.08685    
      4400   8.4023613      15.400366      303.53806      10135.42       216000        -6527.0939     -6839.2898      312.19587    
      4500   8.6420984      15.165338      302.81858      9816.8032      216000        -6532.0318     -6843.4876      311.45587    
      4600   8.8766202      14.921293      299.9551       8904.9874      216000        -6539.6781     -6848.1888      308.51071    
      4700   9.118889       14.690223      299.33757      9834.4317      216000        -6543.6565     -6851.532       307.87557    
      4800   9.3577698      14.453352      300.50641      9633.1331      216000        -6543.3065     -6852.3842      309.07774    
      4900   9.5964225      14.216045      304.12609      8215.1515      216000        -6541.1891     -6853.9898      312.80067    
      5000   9.8370951      13.98154       299.51973      10041.496      216000        -6542.2155     -6850.2785      308.06292    
      5100   10.0752        13.743243      301.8512       9589.4279      216000        -6546.0098     -6856.4707      310.4609     
      5200   10.312771      13.504255      298.49892      8707.3089      216000        -6551.0535     -6858.0665      307.013      
      5300   10.549145      13.263826      297.27811      9563.057       216000        -6553.8849     -6859.6422      305.75736    
      5400   10.790003      13.028991      298.37998      10060.097      216000        -6552.9867     -6859.8773      306.89066    
      5500   11.025729      12.787943      299.2188       8830.0563      216000        -6549.5794     -6857.3328      307.75341    
      5600   11.261264      12.546907      303.00768      10270.913      216000        -6548.6733     -6860.3237      311.65037    
      5700   11.498083      12.307474      301.40933      9061.7751      216000        -6552.8098     -6862.8162      310.00642    
      5800   11.73521       12.068463      298.6781       9489.5133      216000        -6558.3189     -6865.5162      307.19729    
      5900   11.968793      11.826027      302.01481      9891.6903      216000        -6559.6242     -6870.2534      310.62917    
      6000   12.210909      11.592034      298.15423      9434.0844      216000        -6556.9237     -6863.5822      306.65847    
      6100   12.446256      11.351559      306.83249      8733.1909      216000        -6550.3953     -6865.9795      315.58427    
      6200   12.679835      11.109726      300.24073      9512.2853      216000        -6552.4596     -6861.2641      308.80449    
      6300   12.916584      10.870865      298.57382      9751.2596      216000        -6561.7131     -6868.8032      307.09003    
      6400   13.150952      10.630156      298.83632      9542.4517      216000        -6564.1954     -6871.5554      307.36002    
      6500   13.392443      10.395203      298.4309       9000.6457      216000        -6565.353      -6872.2961      306.94304    
      6600   13.633238      10.1595        303.95193      9421.761       216000        -6564.7204     -6877.342       312.62154    
      6700   13.869752      9.9205621      300.3723       9918.7052      216000        -6564.0256     -6872.9654      308.93981    
      6800   14.106903      9.6821425      303.16045      8898.1896      216000        -6564.3416     -6876.149       311.80748    
      6900   14.344646      9.444155       299.48903      9419.4997      216000        -6568.5266     -6876.5579      308.03134    
      7000   14.589208      9.210481       302.73303      9485.9026      216000        -6573.2428     -6884.6107      311.36788    
      7100   14.823804      8.9704256      298.47312      8717.1877      216000        -6577.3151     -6884.3016      306.98646    
      7200   15.058841      8.7307986      297.1424       9269.8869      216000        -6575.7936     -6881.4114      305.61778    
      7300   15.291651      8.490078       300.25336      9540.3164      216000        -6570.4056     -6879.2231      308.81748    
      7400   15.524744      8.2497504      308.23447      9400.1761      216000        -6562.6453     -6879.6716      317.02623    
      7500   15.755092      8.0082454      300.71584      9008.4651      216000        -6566.6365     -6875.9297      309.29315    
      7600   15.989266      7.7689311      298.96911      8616.3504      216000        -6571.7546     -6879.2512      307.4966     
      7700   16.222242      7.5292116      300.176        9857.2231      216000        -6574.382      -6883.12        308.73791    
      7800   16.455597      7.2898542      296.76765      9419.4147      216000        -6576.7056     -6881.938       305.23235    
      7900   16.692284      7.0520754      304.87358      7940.1886      216000        -6578.0089     -6891.5784      313.56948    
      8000   16.923297      6.8120433      298.074        9413.9693      216000        -6584.6837     -6891.2597      306.57596    
      8100   17.157014      6.5732966      299.11672      8823.574       216000        -6585.2533     -6892.9017      307.64841    
      8200   17.385975      6.3329548      303.40316      8448.4828      216000        -6579.6292     -6891.6863      312.05712    
      8300   17.620702      6.0949137      301.25381      8579.4649      216000        -6577.1502     -6886.9967      309.84646    
      8400   17.857226      5.8575503      303.07723      8947.3955      216000        -6577.1766     -6888.8985      311.7219     
      8500   18.089979      5.6190374      299.81392      9512.8886      216000        -6580.8008     -6889.1663      308.36551    
      8600   18.32116       5.3802121      300.75445      8710.4354      216000        -6587.519      -6896.8519      309.33286    
      8700   18.556305      5.1426803      296.71837      8973.1559      216000        -6587.3416     -6892.5232      305.18166    
      8800   18.789319      4.9046526      301.87244      8986.6705      216000        -6585.4926     -6895.9754      310.48274    
      8900   19.022613      4.6668185      303.26495      8526.0605      216000        -6583.7075     -6895.6225      311.91496    
      9000   19.254596      4.4287944      301.6282       8383.6301      216000        -6585.7336     -6895.9651      310.23153    
      9100   19.492113      4.1921075      294.24483      9049.9895      216000        -6591.4756     -6894.1131      302.63756    
      9200   19.733485      3.9561735      296.61799      8406.6581      216000        -6590.4393     -6895.5177      305.07842    
      9300   19.970356      3.7192718      300.05303      8774.5479      216000        -6584.5942     -6893.2056      308.61143    
      9400   20.202935      3.4816316      301.40198      9136.8807      216000        -6581.9124     -6891.9113      309.99886    
      9500   20.439395      3.2447247      303.59712      9285.6485      216000        -6584.5485     -6896.8051      312.25661    
      9600   20.675414      3.0077639      300.59045      8345.1087      216000        -6587.615      -6896.7792      309.16419    
      9700   20.912736      2.7709971      296.34695      8361.1142      216000        -6590.7027     -6895.5024      304.79965    
      9800   21.149036      2.5340953      299.26544      9213.9932      216000        -6593.1735     -6900.9749      307.80138    
      9900   21.38547       2.2972212      301.65109      8096.9326      216000        -6589.7247     -6899.9798      310.25508    
     10000   21.617125      2.0599015      306.19015      8904.2506      216000        -6582.8563     -6897.7799      314.9236     
     10100   21.85482       1.8232084      301.1587       9308.0588      216000        -6583.4539     -6893.2025      309.74864    
     10200   22.087297      1.586119       297.97481      8521.9524      216000        -6589.4037     -6895.8776      306.47394    
     10300   22.323267      1.3493387      298.67809      8408.1933      216000        -6591.9442     -6899.1415      307.19728    
     10400   22.558584      1.1125431      303.21212      9094.2633      216000        -6591.4624     -6903.3231      311.86063    
     10500   22.792953      0.87574178     299.14413      8302.8878      216000        -6591.6913     -6899.368       307.67661    
     10600   23.027695      0.63900084     299.84307      8918.3966      216000        -6590.2649     -6898.6604      308.39548    
     10700   23.267411      0.40238661     300.77375      9238.0461      216000        -6586.9394     -6896.2921      309.35272    
     10800   23.503598      0.165685       298.71399      7619.6696      216000        -6586.6962     -6893.9304      307.2342     
     10870   23.668234      0              303.38501      7725.4082      216000        -6588.6084     -6900.6469      312.03845    
Loop time of 23.6683 on 1 procs for 10000 steps with 7958 atoms

Performance: 36.505 ns/day, 0.657 hours/ns, 422.507 timesteps/s, 3.362 Matom-step/s
99.4% CPU use with 1 MPI tasks x 1 OpenMP threads

MPI task timing breakdown:
Section |  min time  |  avg time  |  max time  |%varavg| %total
---------------------------------------------------------------
Pair    | 8.8088     | 8.8088     | 8.8088     |   0.0 | 37.22
Bond    | 8.3203     | 8.3203     | 8.3203     |   0.0 | 35.15
Kspace  | 0.0070017  | 0.0070017  | 0.0070017  |   0.0 |  0.03
Neigh   | 3.2801     | 3.2801     | 3.2801     |   0.0 | 13.86
Comm    | 1.4776     | 1.4776     | 1.4776     |   0.0 |  6.24
Output  | 0.0050365  | 0.0050365  | 0.0050365  |   0.0 |  0.02
Modify  | 1.1807     | 1.1807     | 1.1807     |   0.0 |  4.99
Other   |            | 0.5887     |            |       |  2.49

Nlocal:           7958 ave        7958 max        7958 min
Histogram: 1 0 0 0 0 0 0 0 0 0
Nghost:          13147 ave       13147 max       13147 min
Histogram: 1 0 0 0 0 0 0 0 0 0
Neighs:         713534 ave      713534 max      713534 min
Histogram: 1 0 0 0 0 0 0 0 0 0

Total # of neighbors = 713534
Ave neighs/atom = 89.662478
Ave special neighs/atom = 0.5885901
Neighbor list builds = 1299
Dangerous builds = 0
Starting NPT production run at 1.0 MPa...
PPPM Kokkos initialization ...
  using 12-bit tables for long-range coulomb
  G vector (1/distance) = 0.0001
  grid = 1 1 1
  stencil order = 5
  estimated absolute RMS force accuracy = 0
  estimated relative force accuracy = 0
  using double precision cuFFT
  3d grid and FFT values/proc = 216 1
WARNING: Using a manybody potential with bonds/angles/dihedrals and special_bond exclusions (src/pair.cpp:250)
Setting up Verlet run ...
  Unit style    : metal
  Current step  : 10870
  Time step     : 0.001
WARNING: Fix property/atom/kk not compatible with Kokkos sorting on device (src/KOKKOS/atom_kokkos.cpp:212)
WARNING: Fix with atom-based arrays not compatible with Kokkos sorting on device, switching to classic host sorting (src/KOKKOS/atom_kokkos.cpp:218)
WARNING: Inconsistent image flags
For more information see https://docs.lammps.org/err0027 (src/domain.cpp:1052)
Per MPI rank memory allocation (min/avg/max) = 9.655 | 9.655 | 9.655 Mbytes
   Step          CPU          CPULeft          Temp          Press          Volume         TotEng         PotEng         KinEng    
     10870   0              0              303.38501      7725.4082      216000        -6588.6084     -6900.6469      312.03845    
     10900   0.082957326    1382.5632      298.79076      6804.6049      217497.68     -6593.732      -6901.0452      307.31317    
     11000   0.36943433     1420.5374      279.22706     -1747.0962      223445.52     -6584.6493     -6871.8407      287.19145    
     11100   0.64838919     1408.8966      294.46744      777.71895      222861.69     -6573.7187     -6876.5852      302.86652    
     11200   0.93050038     1408.9211      293.25562     -8.8668161      224594.37     -6560.7949     -6862.415       301.62014    
     11300   1.2082346      1403.7172      301.4238      -460.77568      224579.95     -6548.8271     -6858.8484      310.0213     
     11400   1.4829813      1397.5571      300.72893      96.060503      224386.37     -6544.3303     -6853.6369      309.30661    
     11500   1.7572421      1392.8803      303.94667     -158.0092       224320.98     -6543.6993     -6856.3154      312.61613    
     11600   2.0390338      1394.5604      303.64662      229.39105      223977.38     -6547.8367     -6860.1442      312.30753    
     11700   2.3138128      1391.55        298.6944      -537.78295      224169.05     -6553.3879     -6860.6019      307.21406    
     11800   2.5875444      1388.566       297.56712      626.21156      223814.04     -6556.6886     -6862.7432      306.05462    
     11900   2.8623304      1386.619       298.70743     -123.80147      223771.61     -6555.1891     -6862.4165      307.22745    
     12000   3.136321       1384.6169      303.44621      594.50805      223639.57     -6552.2929     -6864.3943      312.1014     
     12100   3.4198661      1386.7701      300.66092     -305.47507      224008.79     -6551.5186     -6860.7553      309.23666    
     12200   3.6881903      1382.85        301.594        215.32994      224587.79     -6552.831      -6863.0274      310.19636    
     12300   3.9626546      1381.5813      295.04081      133.07136      224461.87     -6557.2709     -6860.7272      303.45625    
     12400   4.2384378      1380.8724      299.82826     -1379.2441      224558.49     -6556.4463     -6864.8265      308.38026    
     12500   4.5194448      1381.8136      300.53345      1676.7778      224093.52     -6550.3794     -6859.4849      309.10556    
     12600   4.8049493      1383.9091      301.03187     -968.66957      224035.77     -6550.7934     -6860.4116      309.6182     
     12700   5.0814609      1383.2962      303.69799      543.32165      223792.22     -6554.2844     -6866.6447      312.36036    
     12800   5.354193       1381.7428      301.84836      33.278163      224086.15     -6556.075      -6866.533       310.45797    
     12900   5.6334797      1381.9234      296.3438      -69.930212      224353.73     -6556.1447     -6860.9411      304.7964     
     13000   5.9148789      1382.5547      301.19118      409.70502      224081.37     -6553.8205     -6863.6025      309.78205    
     13100   6.2002024      1383.98        300.72906     -282.56145      224464.31     -6550.4477     -6859.7544      309.30675    
     13200   6.4741916      1382.8376      307.0057       339.06556      224329.45     -6545.2619     -6861.0243      315.76241    
     13300   6.746633       1381.4497      305.18709      83.631193      224481.6      -6549.2489     -6863.1408      313.89193    
     13400   7.0190249      1380.1403      300.08454     -202.6272       224346.24     -6554.9224     -6863.5663      308.64384    
     13500   7.2938832      1379.3762      299.94355     -136.3363       224119.94     -6558.5896     -6867.0884      308.49883    
     13600   7.5750532      1379.7975      296.32519      973.76866      224179.84     -6561.4966     -6866.2738      304.77727    
     13700   7.849819       1379.0442      302.64169     -1327.5395      223995.67     -6561.0262     -6872.3001      311.27393    
     13800   8.1209545      1377.7077      299.01077      903.62278      224107        -6561.7138     -6869.2533      307.53944    
     13900   8.3947475      1376.8773      299.49431      343.17573      224381.24     -6563.2514     -6871.2882      308.03678    
     14000   8.6704693      1376.3887      298.0223      -898.82735      224094.38     -6565.2541     -6871.7769      306.52279    
     14100   8.9507713      1376.6177      297.83858      68.12708       224170.22     -6566.8999     -6873.2337      306.33383    
     14200   9.2255038      1375.9855      299.49984      288.61382      223979.35     -6564.3676     -6872.4101      308.04246    
     14300   9.5003871      1375.3959      301.21444      1153.7351      223818.46     -6560.0401     -6869.846       309.80597    
     14400   9.7811834      1375.6557      303.11318     -1383.1814      224302.17     -6556.4942     -6868.2531      311.75887    
     14500   10.056516      1375.1387      305.06424      929.59878      223919.24     -6556.8828     -6870.6484      313.76558    
     14600   10.340156      1375.7399      297.76141     -221.97877      224446.8      -6562.9374     -6869.1919      306.25445    
     14700   10.614505      1375.0913      294.22524      350.77242      224007.29     -6566.1738     -6868.7912      302.61742    
     14800   10.902007      1376.122       298.51409     -338.85462      224290.91     -6566.6095     -6873.6381      307.0286     
     14900   11.180386      1375.9644      302.95083     -194.14455      224482.45     -6563.3214     -6874.9133      311.59189    
     15000   11.45786       1375.6924      303.81726      809.86879      224036.96     -6558.0257     -6870.5087      312.48304    
     15100   11.7412        1376.1077      299.42826     -1216.0634      224501.26     -6559.4301     -6867.3989      307.96884    
     15200   12.014873      1375.384       300.30462      414.01905      224155.16     -6564.2085     -6873.0787      308.8702     
     15300   12.293176      1375.1987      294.49033     -511.26987      224172.38     -6572.1544     -6875.0445      302.89007    
     15400   12.569036      1374.7419      296.52494      489.42567      223988.18     -6573.6896     -6878.6723      304.98271    
     15500   12.846262      1374.4392      297.99103      0.87717835     223686.99     -6570.262      -6876.7526      306.49062    
     15600   13.131128      1374.9375      298.77052     -391.27288      224329.8      -6565.8673     -6873.1596      307.29235    
     15700   13.406175      1374.3968      300.45456      521.07487      223844.21     -6562.9663     -6871.9908      309.02442    
     15800   13.681926      1373.9375      302.99677      99.767397      224466.47     -6562.0365     -6873.6757      311.63914    
     15900   13.961417      1373.8535      293.58544      158.85948      224526.29     -6569.1329     -6871.0923      301.95937    
     16000   14.237996      1373.4811      296.68142     -814.18447      224070.11     -6571.8321     -6876.9758      305.14366    
     16100   14.513155      1372.9779      294.65914      732.75179      224343.87     -6570.9787     -6874.0424      303.0637     
     16200   14.788697      1372.5189      303.86118     -433.64836      223986.26     -6563.8389     -6876.3671      312.5282     
     16300   15.063284      1371.9796      301.41441      494.3999       223940.04     -6563.7591     -6873.7707      310.01164    
     16400   15.339278      1371.5757      300.34659     -365.8007       224236.49     -6567.0761     -6875.9895      308.91337    
     16500   15.611656      1370.8588      300.95765      661.49695      223919.06     -6569.7681     -6879.31        309.54186    
     16600   15.901022      1371.6228      298.81001     -518.0743       224471.83     -6571.167      -6878.5         307.33296    
     16700   16.17759       1371.266       302.02256      222.53457      224140.84     -6569.9553     -6880.5924      310.63714    
     16800   16.454359      1370.9285      307.12549      54.473992      224191.13     -6562.8285     -6878.7141      315.88562    
     16900   16.731792      1370.6475      304.48084     -972.35712      224284.51     -6562.5348     -6875.7003      313.16553    
     17000   17.011726      1370.568       299.49727      761.11008      224032.12     -6569.4686     -6877.5084      308.03983    
     17100   17.289922      1370.3444      299.56531     -713.63701      224216.94     -6571.4229     -6879.5327      308.1098     
     17200   17.561392      1369.5945      298.40663      383.44575      224194.42     -6569.5961     -6876.5141      306.91807    
     17300   17.833872      1368.937       301.64805     -611.25156      223914.28     -6567.1741     -6877.426       310.25195    
     17400   18.104909      1368.1823      295.70278      179.46687      224335.2      -6570.7799     -6874.917       304.1371     
     17500   18.379505      1367.7069      299.87639      295.45862      223811.06     -6577.8962     -6886.3259      308.42975    
     17600   18.658295      1367.545       299.10726     -635.70308      223765.82     -6580.3144     -6887.9531      307.63868    
     17700   18.930894      1366.9326      297.60142      1023.7259      224062.7      -6577.974      -6884.0639      306.0899     
     17800   19.203786      1366.3509      302.38876     -334.8906       224148.94     -6574.3895     -6885.4033      311.01378    
     17900   19.481317      1366.1032      296.94839      442.19636      224683.62     -6572.0963     -6877.5145      305.41824    
     18000   19.760099      1365.9412      302.70424     -330.65664      224013.56     -6571.6575     -6882.9957      311.33826    
     18100   20.038756      1365.7675      300.21775     -204.86716      224184.72     -6572.2882     -6881.0691      308.78085    
     18200   20.313129      1365.3029      304.95102     -76.480131      223769.02     -6576.5773     -6890.2264      313.64913    
     18300   20.584004      1364.6115      296.3498       505.01891      223754.92     -6580.7913     -6885.5939      304.80258    
     18400   20.861959      1364.3944      298.72967     -870.64646      224232.33     -6579.7044     -6886.9547      307.25033    
     18500   21.140897      1364.2391      304.87345      39.961134      224076.14     -6572.7526     -6886.322       313.56934    
     18600   21.42253       1364.2522      303.81277     -158.60223      224372.41     -6572.4416     -6884.92        312.47842    
     18700   21.693839      1363.6089      297.91081     -739.68379      224358.75     -6575.0985     -6881.5066      306.40811    
     18800   21.965937      1363.0239      304.57041      1187.4206      224038.24     -6576.8414     -6890.099       313.25766    
     18900   22.24194       1362.6859      295.52698     -684.4174       224253.71     -6581.4429     -6885.3992      303.95629    
     19000   22.513171      1362.0608      296.01991     -44.047079      224266.83     -6583.8371     -6888.3004      304.46328    
     19100   22.794049      1362.0207      301.33347     -259.69633      223693.88     -6576.976      -6886.9044      309.9284     
     19200   23.068202      1361.5778      300.25082      219.61934      224302.51     -6572.4189     -6881.2338      308.81487    
     19300   23.340983      1361.059       305.00968      99.034124      223735.63     -6573.7404     -6887.4499      313.70947    
     19400   23.613028      1360.5036      299.09649     -1072.9187      224166.27     -6578.5927     -6886.2203      307.62761    
     19500   23.889111      1360.1846      298.8005       1196.9998      224126.65     -6579.7857     -6887.1089      307.32318    
     19600   24.169397      1360.1032      298.88077     -80.343333      224114.05     -6578.0267     -6885.4325      307.40574    
     19700   24.445565      1359.7881      304.79271     -416.3802       224200.34     -6575.7237     -6889.21        313.4863     
     19800   24.721646      1359.4692      296.29912      298.56579      224270.05     -6570.5325     -6875.283       304.75045    
     19900   24.995334      1359.021       307.12483      783.5538       224239.33     -6565.142      -6881.027       315.88495    
     20000   25.273712      1358.8289      302.27571     -1465.632       224398.63     -6570.9131     -6881.8107      310.89752    
     20100   25.554255      1358.75        296.7988       1100.3077      224398.71     -6575.6549     -6880.9193      305.26438    
     20200   25.833928      1358.6211      298.55226      221.57724      223883.47     -6579.0223     -6886.0902      307.06786    
     20300   26.112808      1358.4476      297.38819     -150.6034       223956.14     -6584.3187     -6890.1893      305.87058    
     20400   26.385989      1357.9787      299.30841      423.1079       224002.67     -6585.2465     -6893.0921      307.84557    
     20500   26.661         1357.607       302.91344     -692.77507      223966.2      -6581.4386     -6892.992       311.55343    
     20600   26.942809      1357.5798      305.77059      511.25182      224395.14     -6578.0391     -6892.5312      314.49207    
     20700   27.222769      1357.4553      302.71872     -375.92428      224148.2      -6577.9271     -6889.2802      311.35316    
     20800   27.497097      1357.0497      299.10222      369.06993      223756.53     -6583.291      -6890.9245      307.6335     
     20900   27.771633      1356.6568      299.09413     -1032.3085      223835.16     -6588.4407     -6896.0659      307.62518    
     21000   28.046121      1356.264       300.72547      560.35571      223444.97     -6589.44       -6898.743       309.30305    
     21100   28.330607      1356.3521      295.93904      342.58836      224093.71     -6586.312      -6890.6921      304.3801     
     21200   28.599862      1355.711       298.11436     -125.63905      224229.08     -6579.0159     -6885.6334      306.61747    
     21300   28.876796      1355.4376      302.55712     -468.46782      224082.32     -6578.1611     -6889.3481      311.18695    
     21400   29.151758      1355.0724      301.15188      82.414905      224203.73     -6581.9373     -6891.6789      309.74163    
     21500   29.430057      1354.8624      297.50095      986.40227      223804.32     -6585.9462     -6891.9327      305.98657    
     21600   29.712         1354.8175      297.75477     -1116.0202      223803.42     -6587.3721     -6893.6197      306.24762    
     21700   29.989949      1354.5876      300.77483      1046.6776      223591.64     -6587.2374     -6896.5912      309.35382    
     21800   30.263175      1354.1456      302.32686     -159.34469      223683.61     -6584.0937     -6895.0438      310.95012    
     21900   30.53684       1353.7261      301.66797     -438.42195      224332.05     -6579.473      -6889.7454      310.27244    
     22000   30.822275      1353.8263      303.07567      744.63813      223761.8      -6579.4932     -6891.2135      311.72029    
     22100   31.118465      1354.3876      302.71295     -294.885        223862.53     -6585.9602     -6897.3074      311.34722    
     22200   31.392992      1353.9995      297.40334      214.03925      223832.98     -6590.6566     -6896.5428      305.88617    
     22300   31.665516      1353.5277      296.86506     -548.40568      223751.92     -6591.3842     -6896.7168      305.33253    
     22400   31.93789       1353.0531      300.80634      827.96681      223377.47     -6588.7217     -6898.108       309.38623    
     22500   32.21365       1352.7241      300.81111     -407.68212      223830.15     -6583.1773     -6892.5684      309.39114    
     22600   32.500956      1352.8766      305.92961      141.82795      223685.18     -6577.5709     -6892.2265      314.65563    
     22700   32.778204      1352.6067      301.31311      65.326762      224127.96     -6580.1212     -6890.0287      309.90745    
     22800   33.054942      1352.3157      303.48331      638.21015      223913.18     -6588.1877     -6900.3272      312.13955    
     22900   33.329833      1351.9501      299.75708     -416.86039      223590.01     -6590.6411     -6898.9481      308.30704    
     23000   33.606214      1351.6459      297.36311     -562.00358      223946.44     -6590.119      -6895.9638      305.84479    
     23100   33.885579      1351.4611      303.33998      920.61935      223724.22     -6586.8969     -6898.889       311.99214    
     23200   34.159255      1351.0499      300.27832     -1215.4591      223982.44     -6587.6735     -6896.5166      308.84315    
     23300   34.427433      1350.4251      298.64328      1020.5368      223872.89     -6591.2152     -6898.3766      307.16147    
     23400   34.7022        1350.0624      296.99977     -261.27878      223556.68     -6597.3325     -6902.8035      305.47108    
     23500   34.974341      1349.5998      298.24462     -314.364        223604.19     -6599.6674     -6906.4189      306.75145    
     23600   35.253377      1349.4041      300.9936       503.77408      223613.24     -6594.1196     -6903.6985      309.57884    
     23700   35.529091      1349.0809      295.64873     -318.05672      223533.96     -6592.4468     -6896.5284      304.08151    
     23800   35.802049      1348.6547      300.88441      266.41948      223848.94     -6590.2391     -6899.7056      309.46652    
     23900   36.084889      1348.6001      300.23498      75.935126      223722.11     -6589.9168     -6898.7153      308.79857    
     24000   36.358573      1348.2025      301.08686      25.6491        224129.49     -6588.2531     -6897.9278      309.67476    
     24100   36.637242      1347.9902      296.95216     -27.963675      224347.76     -6586.6791     -6892.1012      305.42212    
     24200   36.904276      1347.3522      301.18448      541.1154       224165.78     -6585.8446     -6895.6198      309.77516    
     24300   37.175879      1346.8852      299.8613      -700.15839      223962.77     -6590.863      -6899.2772      308.41424    
     24400   37.44706       1346.4059      301.51995      517.3802       223664.27     -6594.5342     -6904.6544      310.12019    
     24500   37.717873      1345.9166      299.16105     -134.59178      223730.73     -6596.731      -6904.425       307.69401    
     24600   37.995657      1345.6773      298.79649     -409.01569      224178.57     -6592.9959     -6900.315       307.31905    
     24700   38.267499      1345.2286      302.71905      627.76631      224058.5      -6584.285      -6895.6385      311.3535     
     24800   38.544433      1344.96        298.74029     -482.2455       224184.7      -6585.2431     -6892.5044      307.26125    
     24900   38.818861      1344.6046      300.84374      1148.9421      224005.68     -6588.3935     -6897.8182      309.4247     
     25000   39.094573      1344.2945      297.72907     -965.68591      223907.89     -6592.2988     -6898.52        306.22118    
     25100   39.373593      1344.098       294.66035      638.44471      223889.12     -6594.6425     -6897.7075      303.06494    
     25200   39.643825      1343.6021      297.03589      109.62165      223783.93     -6593.702      -6899.2103      305.50824    
     25300   39.918378      1343.2549      303.80221     -563.84384      224219.93     -6584.8349     -6897.3025      312.46755    
     25400   40.191954      1342.876       302.9303       857.11143      224217.02     -6582.3218     -6893.8926      311.57077    
     25500   40.465606      1342.5012      300.04558     -361.11626      224321.05     -6587.8715     -6896.4752      308.60378    
     25600   40.746973      1342.3818      297.45923     -140.8718       223787.21     -6592.5706     -6898.5143      305.94365    
     25700   41.02792       1342.2466      298.68055      641.45111      223884.73     -6594.86       -6902.0598      307.19981    
     25800   41.304781      1341.9766      302.61888      351.71052      224017.96     -6594.4619     -6905.7124      311.25048    
     25900   41.577191      1341.563       303.88202     -1077.4254      223876.08     -6586.5932     -6899.1428      312.54964    
     26000   41.853411      1341.2732      303.01581      911.22682      224330.91     -6584.2465     -6895.9052      311.65873    
     26100   42.135171      1341.1601      303.40179     -298.99829      223929.93     -6585.7116     -6897.7673      312.05571    
     26200   42.412264      1340.8971      301.59708      199.91705      223858.88     -6592.1771     -6902.3767      310.19953    
     26300   42.689842      1340.6492      302.12759      25.204257      223671.57     -6593.6937     -6904.4388      310.74517    
     26400   42.966256      1340.3646      298.12771     -421.7054       223793.07     -6594.401      -6901.0322      306.63119    
     26500   43.245627      1340.1718      303.25293      522.25695      224041.35     -6592.1553     -6904.0579      311.9026     
     26600   43.527861      1340.066       300.80424     -522.04326      224225.86     -6587.9661     -6897.3501      309.38407    
     26700   43.80983       1339.9499      305.5702       146.3997       224196.8      -6584.2491     -6898.5351      314.28597    
     26800   44.085478      1339.6396      302.56313     -158.34592      224208.04     -6585.7766     -6896.9697      311.19313    
     26900   44.36229       1339.3648      297.22213      865.43897      223512.37     -6593.8834     -6899.5832      305.69979    
     27000   44.635933      1338.995       297.52996      63.846564      223587.03     -6598.8975     -6904.9139      306.0164     
     27100   44.923555      1339.0431      294.4974      -148.06187      224126.58     -6596.3824     -6899.2798      302.89734    
     27200   45.195302      1338.6168      303.77473      151.06856      223866.77     -6591.4985     -6903.9378      312.43929    
     27300   45.470489      1338.2937      300.06943     -244.5672       224118.25     -6591.0578     -6899.6861      308.6283     
     27400   45.745031      1337.9523      304.59333      612.68541      223755.59     -6589.6564     -6902.9376      313.28124    
     27500   46.025728      1337.7906      302.41229     -408.41104      224282.95     -6588.6509     -6899.6888      311.03799    
     27600   46.305144      1337.5904      299.94609      343.58304      223974.95     -6590.7317     -6899.2331      308.50145    
     27700   46.579106      1337.2328      298.62694     -435.22864      223802.83     -6595.3753     -6902.52        307.14467    
     27800   46.846036      1336.6755      298.24203      203.64042      224013.49     -6597.9375     -6904.6862      306.74878    
     27900   47.119607      1336.3099      299.17245     -54.795667      223639.56     -6597.8782     -6905.5839      307.70574    
     28000   47.393992      1335.9683      304.29691     -424.91932      223889.06     -6592.1425     -6905.1189      312.97636    
     28100   47.672471      1335.7423      304.35317      921.61664      223608.83     -6588.2368     -6901.271       313.03423    
     28200   47.949465      1335.4743      302.549       -735.18262      224048.63     -6591.0222     -6902.2008      311.1786     
     28300   48.221839      1335.0782      296.43881     -275.5325       224060.69     -6596.193      -6901.0871      304.89412    
     28400   48.493104      1334.6531      299.95017      949.02645      224093.32     -6596.7784     -6905.284       308.50564    
     28500   48.765606      1334.2639      298.4618       324.86389      223758.31     -6596.1513     -6903.1262      306.97482    
     28600   49.042554      1333.9962      302.75738     -1400.3583      223922.45     -6593.5008     -6904.8938      311.39292    
     28700   49.312708      1333.5451      304.13714      1613.7793      223874.16     -6589.1152     -6901.9272      312.81203    
     28800   49.588992      1333.2608      305.04555     -82.88576       224010.46     -6584.4166     -6898.1629      313.74636    
     28900   49.864535      1332.9568      299.74757     -967.54144      224259.51     -6588.1279     -6896.4252      308.29726    
     29000   50.137145      1332.5751      299.24799      1005.3289      223744.68     -6594.658      -6902.4414      307.78344    
     29100   50.417567      1332.4011      302.01226     -897.36865      224093.3      -6595.9404     -6906.567       310.62655    
     29200   50.68911       1331.9926      299.26597      562.50986      223918.81     -6594.8107     -6902.6127      307.80192    
     29300   50.972484      1331.8947      302.55746     -282.87632      223796.3      -6589.8877     -6901.075       311.1873     
     29400   51.249202      1331.6219      303.36775      128.33502      224142.13     -6586.4406     -6898.4613      312.0207     
     29500   51.525004      1331.3254      302.91812      63.8492        223723.52     -6587.887      -6899.4453      311.55824    
     29600   51.814881      1331.3908      299.96181      42.121214      223930.01     -6595.245      -6903.7626      308.51761    
     29700   52.089005      1331.0498      296.72453     -11.121842      224133.29     -6599.0663     -6904.2543      305.18799    
     29800   52.367182      1330.8125      300.04837      22.102186      223691.96     -6597.2661     -6905.8727      308.60664    
     29900   52.641741      1330.4834      303.67257      263.36014      223678.44     -6593.0147     -6905.3489      312.33421    
     30000   52.926324      1330.4068      296.75769     -197.06763      223989.65     -6592.7263     -6897.9484      305.2221     
     30100   53.205759      1330.1993      300.73709     -29.552968      223833.55     -6597.1716     -6906.4866      309.315      
     30200   53.478781      1329.8317      297.47549     -504.75069      223826.84     -6602.4606     -6908.4209      305.96038    
     30300   53.752198      1329.4748      298.99578      815.77918      223714.37     -6601.765      -6909.289       307.52403    
     30400   54.026868      1329.1495      297.47997     -1014.3581      223803.07     -6597.0675     -6903.0325      305.96498    
     30500   54.299734      1328.7806      300.05498      534.01742      223845.19     -6592.7074     -6901.3209      308.61344    
     30600   54.577809      1328.5395      302.83785     -260.00071      223827.47     -6593.2908     -6904.7664      311.47569    
     30700   54.856751      1328.3191      296.85185     -55.720644      223903.75     -6596.9017     -6902.2206      305.31895    
     30800   55.131207      1327.9899      299.27027     -8.8308939      224278.41     -6598.2019     -6906.0082      307.80635    
     30900   55.403968      1327.6207      301.04604      541.81781      223719.11     -6596.8827     -6906.5155      309.63277    
     31000   55.6847        1327.4425      300.02751     -74.283309      224041.09     -6595.5483     -6904.1335      308.58519    
     31100   55.96974       1327.3654      295.64422     -304.22585      223885.65     -6596.8417     -6900.9185      304.07688    
     31200   56.247042      1327.1038      304.65753      1431.7122      223527.65     -6596.3407     -6909.688       313.34727    
     31300   56.522656      1326.8023      300.1505      -1669.6408      224191.82     -6598.507      -6907.2187      308.71168    
     31400   56.795807      1326.4436      301.18866      445.08753      224028.54     -6597.9128     -6907.6923      309.77946    
     31500   57.070327      1326.1175      298.39861      284.4605       224221.22     -6597.1133     -6904.0231      306.90982    
     31600   57.353933      1326.0019      302.60891      53.531075      224145.39     -6592.0974     -6903.3377      311.24022    
     31700   57.628155      1325.6689      301.79985     -835.98628      224491.14     -6588.8615     -6899.2695      310.40808    
     31800   57.901933      1325.3263      304.36737      760.05285      223649.36     -6593.2881     -6906.3369      313.04883    
     31900   58.18287       1325.1474      298.07055     -84.353811      223713.83     -6600.3637     -6906.9361      306.57241    
     32000   58.45749       1324.8244      297.45265     -624.64966      224105.42     -6599.7001     -6905.637       305.93689    
     32100   58.740094      1324.6818      298.67915      1237.2346      223910.11     -6598.8957     -6906.0941      307.19836    
     32200   59.016396      1324.3966      300.89359     -1058.6993      224349.47     -6593.9273     -6903.4032      309.47597    
     32300   59.29357       1324.1309      301.8664       671.55771      223994.25     -6590.1972     -6900.6737      310.47653    
     32400   59.567891      1323.8017      302.07373     -761.17027      224483.5      -6591.6853     -6902.3751      310.68977    
     32500   59.845878      1323.554       297.67063      126.65041      224000.72     -6600.7905     -6906.9516      306.16108    
     32600   60.127208      1323.3797      299.61193      118.08283      223982.54     -6602.0853     -6910.2431      308.15775    
     32700   60.402481      1323.0717      300.08747     -114.34298      224327.22     -6599.6112     -6908.258       308.64686    
     32800   60.676734      1322.7418      302.86937      290.17239      224065.25     -6594.7982     -6906.3063      311.5081     
     32900   60.956703      1322.5364      300.75223     -577.30409      224085.26     -6593.4357     -6902.7663      309.33058    
     33000   61.232147      1322.2326      302.00488      633.40043      224006.01     -6594.7072     -6905.3262      310.61896    
     33100   61.509111      1321.9617      296.25934      153.50786      223901.94     -6603.1041     -6907.8136      304.70954    
     33200   61.785809      1321.6851      298.01462      59.576018      224118.98     -6604.9728     -6911.4877      306.51488    
     33300   62.058824      1321.3301      295.5851       237.9613       223985.82     -6601.3626     -6905.3786      304.01607    
     33400   62.333607      1321.0132      300.87767      325.86243      223858.64     -6597.6798     -6907.1394      309.4596     
     33500   62.606706      1320.6612      299.82918     -60.869785      224136        -6596.7932     -6905.1744      308.3812     
     33600   62.890756      1320.5399      301.767        226.40693      223950.52     -6597.7481     -6908.1224      310.37429    
     33700   63.168053      1320.276       296.61967     -318.10602      224078.67     -6601.3415     -6906.4217      305.08015    
     33800   63.440935      1319.9201      295.88728      450.49239      223705.53     -6611.7028     -6916.0297      304.32686    
     33900   63.718519      1319.6623      294.97094      162.85898      223807.18     -6609.2275     -6912.6119      303.38439    
     34000   63.990746      1319.2939      298.95168     -516.69227      223832.54     -6602.7755     -6910.2541      307.47867    
     34100   64.271324      1319.0977      300.15483      1369.8663      223801.54     -6598.5162     -6907.2324      308.71614    
     34200   64.544918      1318.7581      299.3297      -936.79924      223971.97     -6596.871      -6904.7384      307.86747    
     34300   64.824407      1318.539       300.41843      587.86516      224178.49     -6596.8172     -6905.8045      308.98726    
     34400   65.098284      1318.2057      299.25937      385.9427       224153.4      -6602.9716     -6910.7667      307.79514    
     34500   65.373914      1317.9083      296.24143     -717.66768      223588.55     -6606.4734     -6911.1645      304.69112    
     34600   65.650278      1317.6257      295.65693      306.69649      224156.69     -6604.7946     -6908.8846      304.08995    
     34700   65.932004      1317.4504      303.95301      120.73603      223908.23     -6595.5484     -6908.171       312.62265    
     34800   66.208935      1317.1788      301.62323     -51.365523      224017.24     -6595.7272     -6905.9536      310.22642    
     34900   66.485838      1316.9066      297.65349     -101.65924      224201.91     -6598.5384     -6904.6819      306.14346    
     35000   66.760588      1316.5919      302.93549     -114.34779      223857.67     -6600.5047     -6912.0808      311.57612    
     35100   67.042317      1316.4145      297.56602      249.9594       223949.51     -6605.7595     -6911.813       306.05349    
     35200   67.320378      1316.1646      295.75102      449.08749      223777.02     -6608.6508     -6912.8375      304.18672    
     35300   67.595399      1315.8553      295.04661     -905.14713      224100.56     -6603.2727     -6906.7349      303.46222    
     35400   67.870792      1315.5535      301.95187      564.84606      224243.74     -6598.6384     -6909.2029      310.56443    
     35500   68.147275      1315.2729      299.05784      302.11086      224111.13     -6597.8173     -6905.4052      307.58786    
     35600   68.427816      1315.0703      299.92102     -845.99533      224346.62     -6597.8521     -6906.3277      308.47566    
     35700   68.706923      1314.8397      299.58475      1202.1464      224023.32     -6598.984      -6907.1138      308.1298     
     35800   68.98261       1314.5435      296.63918     -1501.671       224208.12     -6602.2771     -6907.3773      305.10021    
     35900   69.259841      1314.2768      297.96491      725.56382      223911.59     -6603.9647     -6910.4284      306.46375    
     36000   69.534907      1313.969       299.61352      211.81083      224064.48     -6600.8207     -6908.98        308.15938    
     36100   69.819226      1313.8357      302.15116     -708.99934      224037.58     -6597.9115     -6908.6809      310.76941    
     36200   70.094733      1313.536       302.53181      290.00303      224067.95     -6593.7337     -6904.8946      311.16092    
     36300   70.36767       1313.1886      303.49783      27.506939      223859.57     -6595.8781     -6908.0326      312.15449    
     36400   70.640062      1312.8316      301.95538     -382.692        224283.59     -6602.7008     -6913.2688      310.56804    
     36500   70.922731      1312.6655      300.82624      751.07078      223737.72     -6604.3168     -6913.7235      309.4067     
     36600   71.210372      1312.5901      296.47109     -194.88601      224192.67     -6605.654      -6910.5813      304.92733    
     36700   71.485508      1312.2836      298.11751     -646.77123      224406.13     -6601.2544     -6907.8751      306.62071    
     36800   71.762332      1312.0081      304.04437      955.96011      223830.36     -6596.4808     -6909.1975      312.71662    
     36900   72.040588      1311.7587      302.25972     -1204.446       224613.69     -6598.1762     -6909.0572      310.88107    
     37000   72.31518       1311.4426      301.82578      703.08788      223750.58     -6602.2009     -6912.6356      310.43475    
     37100   72.593419      1311.1927      300.71675     -95.396467      223820.58     -6607.5129     -6916.807       309.29409    
     37200   72.864311      1310.8104      293.7768      -57.587383      224105.21     -6610.5909     -6912.7471      302.15618    
     37300   73.137392      1310.4682      298.48841      445.64386      223900.62     -6608.4299     -6915.4321      307.00219    
     37400   73.409564      1310.1103      297.88227     -738.81249      224125.17     -6603.7496     -6910.1284      306.37876    
     37500   73.681861      1309.7553      302.07042      359.91567      224172.1      -6601.1328     -6911.8192      310.68637    
     37600   73.959425      1309.4941      300.61329      117.6194       224258.56     -6600.4628     -6909.6505      309.18767    
     37700   74.229658      1309.1035      297.00749      118.53682      223973.52     -6601.8926     -6907.3716      305.47903    
     37800   74.500351      1308.7219      299.41717      33.969591      224049.41     -6603.4848     -6911.4423      307.95744    
     37900   74.775737      1308.4233      298.45517     -331.73661      224218.16     -6606.8225     -6913.7905      306.968      
     38000   75.047387      1308.0597      297.2713       338.66793      223989.94     -6605.9357     -6911.6861      305.75036    
     38100   75.327918      1307.8509      303.02776      372.88543      224186.42     -6601.8257     -6913.4967      311.67102    
     38200   75.601684      1307.5246      304.00185     -518.42953      224050.97     -6598.0546     -6910.7275      312.67289    
     38300   75.886655      1307.3918      302.34784     -292.22432      223969.85     -6600.6182     -6911.5899      310.9717     
     38400   76.165921      1307.16        295.35619      450.12874      224158.71     -6606.9252     -6910.7058      303.78063    
     38500   76.441088      1306.8577      299.26091     -361.16924      223901.77     -6608.2575     -6916.0542      307.79672    
     38600   76.718789      1306.5987      300.78386      511.18132      223776.91     -6608.009      -6917.3721      309.36311    
     38700   76.991692      1306.2583      303.40175      108.96812      223946.66     -6604.3671     -6916.4228      312.05567    
     38800   77.265589      1305.9351      307.9211      -816.24458      224110.27     -6597.8702     -6914.5741      316.70392    
     38900   77.538955      1305.6033      300.49348      493.08647      224120.58     -6599.3759     -6908.4404      309.06444    
     39000   77.812816      1305.2803      298.90769     -531.13846      224316.74     -6603.7135     -6911.1469      307.43342    
     39100   78.100771      1305.1931      298.76314      944.22117      223583.84     -6606.8364     -6914.1212      307.28475    
     39200   78.37504       1304.8767      300.35863     -295.94763      223990.62     -6606.7415     -6915.6673      308.92575    
     39300   78.650458      1304.5796      300.96167     -363.52859      223893.73     -6607.3409     -6916.8869      309.546      
     39400   78.930036      1304.3514      298.86426      45.849377      224083.43     -6607.5415     -6914.9303      307.38876    
     39500   79.206041      1304.064       296.8038      -70.501922      224060.91     -6608.6673     -6913.9368      305.26953    
     39600   79.485136      1303.8274      297.1434       407.33955      223951.27     -6609.2914     -6914.9102      305.61881    
     39700   79.771308      1303.7061      299.6498      -96.027239      224124.2      -6605.9668     -6914.1635      308.1967     
     39800   80.047929      1303.4282      305.07811      490.32245      223622.49     -6602.8552     -6916.6351      313.77984    
     39900   80.323792      1303.138       300.41962     -925.40106      224395.83     -6601.6819     -6910.6704      308.98848    
     40000   80.60061       1302.8634      301.23938      651.7618       223863.94     -6605.8849     -6915.7165      309.83163    
     40100   80.898152      1302.9225      296.1895       137.20729      224199.09     -6612.712      -6917.3497      304.63771    
     40200   81.179585      1302.7206      293.17611      258.99521      224252.66     -6611.0039     -6912.5422      301.53836    
     40300   81.457033      1302.4545      300.30037     -104.17035      223618.82     -6606.94       -6915.8058      308.86583    
     40400   81.73118       1302.1358      300.83547      225.75939      224193.42     -6605.5491     -6914.9653      309.41619    
     40500   82.007003      1301.8439      302.53663      379.71637      223914.79     -6605.0175     -6916.1834      311.16587    
     40600   82.293133      1301.7152      297.70363     -861.46684      224226.58     -6607.2815     -6913.4765      306.19502    
     40700   82.568592      1301.4173      296.46256      940.2943       223989.76     -6613.269      -6918.1875      304.91855    
     40800   82.843666      1301.1134      296.97608     -737.7187       224055.35     -6613.3938     -6918.8405      305.44672    
     40900   83.124879      1300.9058      299.38496      1097.2259      224106.62     -6607.3488     -6915.2732      307.92431    
     41000   83.401151      1300.6206      300.80233     -30.532076      224124.9      -6604.1433     -6913.5254      309.3821     
     41100   83.683274      1300.4265      301.10734     -811.08141      224086.06     -6604.8802     -6914.576       309.69582    
     41200   83.959839      1300.1457      300.08088      418.0978       223714.92     -6607.8305     -6916.4706      308.64008    
     41300   84.237506      1299.8819      294.83587      118.63542      223717.57     -6614.3174     -6917.5629      303.24547    
     41400   84.512363      1299.5748      300.33537     -232.47525      223630.25     -6615.9785     -6924.8804      308.90182    
     41500   84.793182      1299.3593      294.65116      1013.528       223660.72     -6611.2991     -6914.3546      303.05548    
     41600   85.074838      1299.1562      303.74719     -525.88292      224243.67     -6602.9816     -6915.3926      312.41097    
     41700   85.349832      1298.8512      303.10268      160.23976      224235.19     -6603.28       -6915.028       311.74807    
     41800   85.627134      1298.5813      299.21606      90.832684      224346.84     -6607.0369     -6914.7875      307.75059    
     41900   85.914063      1298.4569      296.00044     -330.54243      223925.5      -6612.0102     -6916.4534      304.44326    
     42000   86.190892      1298.1794      293.71357      1260.9644      223896.66     -6612.8396     -6914.9308      302.09115    
     42100   86.474656      1298.0059      294.71429     -94.857758      223744.52     -6609.2065     -6912.327       303.12041    
     42200   86.749616      1297.7001      302.6766      -240.99198      223944.35     -6602.7112     -6914.021       311.30984    
     42300   87.027712      1297.4412      301.22101      615.51629      224216.75     -6602.9573     -6912.77        309.81273    
     42400   87.309073      1297.2306      297.52354     -514.95997      224082.77     -6607.3437     -6913.3535      306.00979    
     42500   87.583604      1296.9185      303.25657     -64.329966      223726.67     -6613.5856     -6925.492       311.90635    
     42600   87.864519      1296.7009      294.73885      78.226855      223940.62     -6617.6929     -6920.8386      303.14568    
     42700   88.138832      1296.3857      302.37528     -188.9959       223857.38     -6613.9142     -6924.9141      310.99992    
     42800   88.413793      1296.0803      302.75314     -331.22168      223800.03     -6610.2111     -6921.5997      311.38856    
     42900   88.688288      1295.7683      302.40774      504.74479      224198.58     -6607.2962     -6918.3295      311.03331    
     43000   88.960812      1295.4278      301.57215     -866.82088      223817.39     -6604.2989     -6914.4727      310.17389    
     43100   89.24435       1295.2476      304.21404      249.24018      223804.68     -6599.931      -6912.8221      312.89113    
     43200   89.518983      1294.9379      300.12645     -5.6773173      224103.83     -6604.1475     -6912.8344      308.68695    
     43300   89.796763      1294.6739      297.17833      248.79995      223752.85     -6610.9614     -6916.6161      305.65474    
     43400   90.074983      1294.416       296.64318     -185.70098      224250.55     -6612.3661     -6917.4704      305.10433    
     43500   90.34998       1294.1119      301.73682      221.82349      223746.48     -6610.4141     -6920.7573      310.34326    
     43600   90.629147      1293.8675      301.74667     -519.26368      224139.24     -6605.2274     -6915.5808      310.35338    
     43700   90.937253      1294.0346      302.27821      186.55935      224207.86     -6600.4523     -6911.3524      310.90008    
     43800   91.215745      1293.7789      298.13542     -50.298419      224214.27     -6602.7013     -6909.3404      306.63913    
     43900   91.486387      1293.412       294.22851     -1042.2605      224363.71     -6609.6098     -6912.2306      302.62078    
     44000   91.762474      1293.1225      303.55894      1866.1529      223346.09     -6612.1048     -6924.3221      312.21734    
     44100   92.045104      1292.9249      301.77833     -1409.6382      224120        -6616.3966     -6926.7826      310.38595    
     44200   92.322948      1292.6598      298.26451      663.6414       223751.56     -6615.495      -6922.2669      306.7719     
     44300   92.599565      1292.3775      301.65204      936.12708      223490.52     -6613.3364     -6923.5924      310.25605    
     44400   92.878671      1292.1299      302.21587     -1126.8582      223946.24     -6612.7051     -6923.5411      310.83596    
     44500   93.158839      1291.8968      300.60416      539.46548      223780.14     -6611.8653     -6921.0436      309.17829    
     44600   93.436324      1291.6263      300.77608     -328.93529      224195.67     -6611.5371     -6920.8922      309.35511    
     44700   93.71161       1291.3255      301.40306      59.59471       223669.21     -6610.8749     -6920.8749      309.99997    
     44800   93.991572      1291.0891      303.8009      -346.35634      223877.8      -6606.7512     -6919.2174      312.4662     
     44900   94.262921      1290.7345      296.99316      266.65404      224120.59     -6607.4163     -6912.8806      305.46429    
     45000   94.542512      1290.4928      300.72199     -67.341541      223895.68     -6610.8023     -6920.1018      309.29948    
     45100   94.828787      1290.3419      298.73151      253.74084      223841.88     -6616.1446     -6923.3968      307.25222    
     45200   95.104175      1290.0426      299.04558     -473.2893       223965.6      -6617.5765     -6925.1517      307.57524    
     45300   95.379132      1289.7375      299.18355      58.313296      223485.75     -6612.4878     -6920.2049      307.71716    
     45400   95.653503      1289.4248      302.43622      205.37078      224281.36     -6605.2695     -6916.3321      311.0626     
     45500   95.936724      1289.2311      300.94922     -40.164006      224120.16     -6605.968      -6915.5012      309.53319    
     45600   96.224263      1289.0948      301.87051      231.75358      224054.88     -6609.8652     -6920.3459      310.48075    
     45700   96.502682      1288.8359      297.55383     -107.24891      224381.62     -6614.4809     -6920.5219      306.04096    
     45800   96.776806      1288.5196      298.77779     -147.30996      223904.17     -6613.5353     -6920.8351      307.29982    
     45900   97.054299      1288.2483      299.34881      732.85804      223553.45     -6612.1613     -6920.0484      307.88713    
     46000   97.332649      1287.9883      300.09224     -511.41526      224047.99     -6609.8549     -6918.5066      308.65176    
     46100   97.612841      1287.7525      308.60318     -345.08332      223687.36     -6603.6659     -6921.0714      317.40546    
     46200   97.888607      1287.4582      298.26406     -101.99669      224403.61     -6605.6858     -6912.4573      306.77143    
     46300   98.164957      1287.1717      302.4548       637.53627      223832.09     -6609.8156     -6920.8973      311.08171    
     46400   98.444839      1286.9315      299.78661     -858.26616      223891.68     -6615.3391     -6923.6766      308.33741    
     46500   98.720062      1286.6303      297.52342      879.12081      223803.98     -6617.2396     -6923.2493      306.00967    
     46600   99.001669      1286.4121      298.05549     -239.83061      223829.83     -6615.458      -6922.0149      306.55691    
     46700   99.277063      1286.1132      296.23519     -529.41595      224019.09     -6612.0089     -6916.6936      304.6847     
     46800   99.551465      1285.8015      301.47572      963.33188      223759.81     -6610.0382     -6920.1129      310.0747     
     46900   99.828491      1285.5239      298.7159      -929.63457      224141.04     -6610.7108     -6917.947       307.23617    
     47000   100.10357      1285.2212      296.94109      561.78178      223678.1      -6613.9901     -6919.4008      305.41073    
     47100   100.38484      1284.998       297.15425      4.1436009      223959.32     -6618.2004     -6923.8304      305.62997    
     47200   100.66472      1284.7567      298.09234     -303.48233      223557.78     -6624.2487     -6930.8435      306.59482    
     47300   100.95064      1284.592       293.72187      282.77592      223434.57     -6627.6116     -6929.7113      302.09969    
     47400   101.22832      1284.3222      298.28092      65.549274      223861.75     -6620.2702     -6927.0589      306.78878    
     47500   101.50525      1284.0428      298.08973     -439.5379       223723.11     -6615.2224     -6921.8146      306.59214    
     47600   101.78739      1283.8292      301.58315      809.2476       223818.4      -6612.8041     -6922.9893      310.18519    
     47700   102.06428      1283.5491      299.78984      49.229664      223796.97     -6612.8025     -6921.1433      308.34074    
     47800   102.34181      1283.2771      299.35788     -906.22199      223918.78     -6613.0452     -6920.9416      307.89646    
     47900   102.61771      1282.9847      300.95881      1123.6817      223672.13     -6615.8168     -6925.3599      309.54305    
     48000   102.89478      1282.7069      295.05044     -839.25188      223823.28     -6619.921      -6923.3871      303.46616    
     48100   103.18296      1282.5672      298.89463      453.32809      223455.73     -6621.3502     -6928.7702      307.41999    
     48200   103.45711      1282.2529      302.46045     -119.50392      223860.87     -6615.5356     -6926.6231      311.08752    
     48300   103.7302       1281.9257      299.26951     -357.62978      223830.84     -6611.4425     -6919.248       307.80557    
     48400   104.00763      1281.6523      301.00431      682.10068      223741.49     -6611.1869     -6920.7767      309.58985    
     48500   104.27822      1281.2947      298.50412     -270.5238       223827.52     -6615.495      -6922.5134      307.01834    
     48600   104.56274      1281.1084      296.88558     -314.69728      223711.64     -6618.3189     -6923.6726      305.35364    
     48700   104.83803      1280.8087      303.04884      457.80253      223816.92     -6611.8118     -6923.5045      311.69269    
     48800   105.11454      1280.5241      304.53308     -476.42081      224171.44     -6606.3748     -6919.5941      313.21926    
     48900   105.38777      1280.1996      299.20314     -136.03251      223786.65     -6611.2102     -6918.9475      307.73731    
     49000   105.66764      1279.9558      300.02948      548.04059      223799.4      -6615.9638     -6924.551       308.58722    
     49100   105.9535       1279.7841      294.29492     -467.76574      224176.05     -6615.7541     -6918.4432      302.68909    
     49200   106.23195      1279.5227      301.96785      711.46452      223454.58     -6613.0242     -6923.6051      310.58087    
     49300   106.50757      1279.2271      299.80438     -1023.4758      223853.13     -6614.1702     -6922.5259      308.35569    
     49400   106.78585      1278.9636      303.02407      1009.3524      223499.05     -6615.0874     -6926.7546      311.66722    
     49500   107.05874      1278.6356      298.89944      239.76852      223744.07     -6616.7106     -6924.1356      307.42494    
     49600   107.33964      1278.4032      298.96173     -886.5654       223914.74     -6616.2746     -6923.7636      307.48901    
     49700   107.61331      1278.0848      302.49679      844.25345      223859.8      -6611.5616     -6922.6865      311.1249     
     49800   107.8913       1277.8177      302.33177     -493.45002      224033.16     -6605.7012     -6916.6564      310.95517    
     49900   108.16906      1277.5478      303.8069      -3.379684       224106.84     -6602.4055     -6914.8779      312.47238    
     50000   108.44368      1277.241       299.25984      421.64148      224030.52     -6610.3367     -6918.1323      307.79562    
     50100   108.72841      1277.053       294.95915     -129.85234      223956.16     -6614.9667     -6918.339       303.37227    
     50200   109.00827      1276.8075      298.57765      137.36179      223664.61     -6615.4757     -6922.5696      307.09397    
     50300   109.28796      1276.5599      302.85708      378.34464      223619.53     -6616.9925     -6928.488       311.49546    
     50400   109.56818      1276.3182      298.96001     -329.9583       223670.4      -6620.7904     -6928.2776      307.48724    
     50500   109.85402      1276.1418      293.92845      215.54542      223966.47     -6619.2201     -6921.5323      302.31217    
     50600   110.13794      1275.9424      300.15778      4.4146226      223871.35     -6611.6348     -6920.354       308.71917    
     50700   110.41836      1275.7022      304.53412      162.93122      224083.72     -6609.6782     -6922.8986      313.22034    
     50800   110.69723      1275.4439      300.46447      257.25561      223756.64     -6612.9099     -6921.9445      309.03461    
     50900   110.98274      1275.2618      296.16718     -837.5784       223736.44     -6619.1008     -6923.7155      304.61474    
     51000   111.261        1274.9962      296.44888      901.37118      223790.06     -6618.9965     -6923.9009      304.90448    
     51100   111.54437      1274.7889      299.85257     -210.68865      223657.09     -6616.922      -6925.3272      308.40525    
     51200   111.82055      1274.4992      301.75235     -42.714014      223927.84     -6613.9577     -6924.3169      310.35922    
     51300   112.0939       1274.1774      300.654        184.63423      223999.55     -6611.424      -6920.6536      309.22955    
     51400   112.37115      1273.9001      306.49457     -452.53758      224018.08     -6604.1366     -6919.3733      315.23671    
     51500   112.64779      1273.616       301.15064      749.94709      224229.17     -6604.9801     -6914.7205      309.74035    
     51600   112.93457      1273.4461      303.53939      204.28297      223866.51     -6612.2351     -6924.4323      312.19723    
     51700   113.21266      1273.178       301.26496     -1329.3259      224006.14     -6615.7619     -6925.6198      309.85794    
     51800   113.48879      1272.8879      300.79926      1548.3692      223726.79     -6618.2461     -6927.625       309.37895    
     51900   113.76496      1272.5982      296.79829     -278.30722      223658.84     -6621.8633     -6927.1272      305.26386    
     52000   114.04153      1272.313       296.88876     -1166.619       223566.78     -6622.2606     -6927.6175      305.35691    
     52100   114.32795      1272.1376      303.14058      1937.772       223535.62     -6617.0976     -6928.8847      311.78705    
     52200   114.60371      1271.8434      303.48029     -988.9543       224201.16     -6613.0376     -6925.1741      312.13645    
     52300   114.88496      1271.6098      301.0254       184.71911      223801.56     -6615.4554     -6925.067       309.61154    
     52400   115.16093      1271.3179      301.95124      381.21705      223930.95     -6621.6284     -6932.1922      310.56379    
     52500   115.43251      1270.9777      294.09304     -340.38621      223494.44     -6624.975      -6927.4564      302.48144    
     52600   115.71728      1270.7826      298.71389      399.23874      223479.83     -6622.6789     -6929.913       307.2341     
     52700   116.00301      1270.5976      298.07339      187.78192      223588.12     -6619.3138     -6925.8891      306.57533    
     52800   116.28096      1270.3272      300.62825     -417.37692      223899.49     -6616.0159     -6925.2189      309.20307    
     52900   116.55458      1270.0095      298.99321      776.99104      223489.32     -6616.6581     -6924.1795      307.52139    
     53000   116.83696      1269.7873      297.68927     -941.64616      223903.47     -6617.9703     -6924.1505      306.18025    
     53100   117.11731      1269.5428      299.38708      403.29433      223816.45     -6618.8425     -6926.769       307.92649    
     53200   117.39293      1269.247       297.42288      382.95386      223635.94     -6620.4074     -6926.3137      305.90627    
     53300   117.66979      1268.9646      297.86555     -1115.1935      224063.42     -6622.0243     -6928.3859      306.36156    
     53400   117.95551      1268.7775      299.43209      1277.4157      223182.62     -6621.0599     -6929.0326      307.97278    
     53500   118.23493      1268.5224      300.68958     -471.4213       223945.29     -6618.1481     -6927.4143      309.26614    
     53600   118.51847      1268.3112      301.25217      219.51851      223553.47     -6615.5785     -6925.4232      309.84478    
     53700   118.79998      1268.0782      303.90377     -274.94947      223900.37     -6611.3633     -6923.9353      312.57201    
[...]
    499500   1357.8886      31.596901      295.18021     -177.71493      223086.36     -6671.1892     -6974.7888      303.59963    
    499600   1358.1707      31.3191        299.41461     -117.56154      223066.64     -6668.5179     -6976.4727      307.95481    
    499700   1358.4467      31.041159      299.20226      596.1045       223312.09     -6664.7936     -6972.53        307.7364     
    499800   1358.7222      30.763207      299.80419     -372.08458      223695.21     -6659.4788     -6967.8343      308.3555     
    499900   1358.992       30.485127      303.07307      332.06022      223305.56     -6654.6562     -6966.3738      311.71761    
    500000   1359.2667      30.207163      306.45281     -336.4289       223419.23     -6653.0519     -6968.2457      315.19375    
    500100   1359.5528      29.929449      300.53602      250.31344      223117.46     -6662.6057     -6971.7139      309.1082     
    500200   1359.8277      29.651487      300.64123      265.8369       223082.34     -6667.64       -6976.8564      309.21641    
    500300   1360.1069      29.373619      300.56781      174.29694      222907.49     -6672.23       -6981.3709      309.1409     
    500400   1360.3872      29.095773      297.44677     -375.07221      222975.6      -6673.854      -6979.7848      305.93083    
    500500   1360.663       28.817832      302.59074      37.652074      223260.41     -6670.0164     -6981.2379      311.22153    
    500600   1360.9492      28.540111      301.55396      212.57283      222929.86     -6664.6698     -6974.825       310.15518    
    500700   1361.2312      28.262298      299.48488     -643.69137      223722.7      -6663.3302     -6971.3572      308.02708    
    500800   1361.5126      27.984472      299.26732      501.43186      223249.93     -6664.0191     -6971.8225      307.80331    
    500900   1361.7896      27.706553      297.73436     -219.30224      223263.67     -6666.297      -6972.5236      306.22663    
    501000   1362.0704      27.428713      306.14374      268.67893      222992.82     -6667.4115     -6982.2874      314.87587    
    501100   1362.3466      27.150778      301.03097     -289.69745      222953.32     -6668.6658     -6978.283       309.61727    
    501200   1362.6231      26.872852      297.73613      221.12242      223404.92     -6667.2327     -6973.4612      306.22845    
    501300   1362.8967      26.594868      298.65073     -1.0229143      223516.42     -6664.9291     -6972.0982      307.16914    
    501400   1363.1712      26.316904      301.48837      9.8898851      223352.98     -6662.0496     -6972.1373      310.08772    
    501500   1363.4431      26.038893      304.62681      114.6286       223324.26     -6660.1713     -6973.4869      313.31567    
    501600   1363.7276      25.76112       302.79085     -245.00177      223490.81     -6665.2319     -6976.6592      311.42735    
    501700   1364.0022      25.483162      297.21479      433.27058      222966.49     -6671.3427     -6977.035       305.69224    
    501800   1364.2745      25.205162      296.97842     -316.59819      223345.76     -6671.3281     -6976.7772      305.44913    
    501900   1364.5473      24.927172      303.5679       378.14094      223002        -6667.1848     -6979.4114      312.22656    
    502000   1364.8223      24.649226      301.81614     -183.06731      222798.56     -6664.7335     -6975.1583      310.42483    
    502100   1365.1128      24.371556      301.8151      -333.0996       223308.55     -6665.9834     -6976.4072      310.42377    
    502200   1365.3911      24.093665      300.48793      686.94377      222582.27     -6673.8357     -6982.8944      309.05874    
    502300   1365.6666      23.815727      295.85686     -393.07148      223232.85     -6678.2236     -6982.5191      304.29558    
    502400   1365.9416      23.53778       299.12372     -161.86502      222909.79     -6672.0769     -6979.7326      307.65561    
    502500   1366.2265      23.260004      301.72671      430.94114      222651.11     -6667.3724     -6977.7052      310.33285    
    502600   1366.5186      22.982345      297.16869     -250.82681      223633.04     -6664.7191     -6970.3639      305.64483    
    502700   1366.7916      22.704364      307.24445     -242.73534      223059.95     -6664.6854     -6980.6934      316.00797    
    502800   1367.0651      22.426393      300.35475      76.057575      223211.75     -6669.8496     -6978.7714      308.92176    
    502900   1367.3398      22.148442      298.19665      24.759376      223012.1      -6674.2641     -6980.9662      306.7021     
    503000   1367.6187      21.870561      297.39505      0.21495384     223015.79     -6672.7465     -6978.6241      305.87765    
    503100   1367.8998      21.592714      299.70691      28.279842      223008.37     -6668.4027     -6976.6582      308.25544    
    503200   1368.1785      21.314827      304.2233       640.2044       223061.04     -6661.851      -6974.7517      312.90065    
    503300   1368.4528      21.036874      299.59434     -546.37642      223484.66     -6661.0952     -6969.2348      308.13966    
    503400   1368.7302      20.758969      304.71305      84.466683      223063.74     -6663.9645     -6977.3689      313.40437    
    503500   1369.0048      20.48102       298.32733      424.60705      223009.33     -6668.6728     -6975.5093      306.83651    
    503600   1369.2849      20.203156      295.74122     -595.59024      223035.29     -6670.8641     -6975.0407      304.17664    
    503700   1369.5587      19.925199      297.36541      957.84044      222797.62     -6669.0844     -6974.9315      305.84716    
    503800   1369.8366      19.647302      301.12378     -470.41618      223440.64     -6662.8726     -6972.5853      309.71273    
    503900   1370.1148      19.36941       301.50179     -88.621156      223457.88     -6658.9873     -6969.0888      310.10152    
    504000   1370.3899      19.091474      304.51116      172.66194      223232.95     -6659.9034     -6973.1001      313.19672    
    504100   1370.675       18.813676      297.19868     -273.87019      223393.75     -6668.5444     -6974.2201      305.67568    
    504200   1370.9517      18.535763      299.8128       218.1811       222986.67     -6669.6374     -6978.0017      308.36435    
    504300   1371.2366      18.257958      299.29566     -160.15254      223299.01     -6666.6932     -6974.5257      307.83247    
    504400   1371.5159      17.980078      302.79506     -100.68465      223175.84     -6663.3334     -6974.7651      311.43168    
    504500   1371.7945      17.702188      303.74846     -558.69353      223421.7      -6663.0999     -6975.5122      312.41227    
    504600   1372.0759      17.424333      297.7382       249.74746      223318.5      -6670.4619     -6976.6925      306.23058    
    504700   1372.3518      17.146407      301.60813     -232.77453      222767.22     -6673.5907     -6983.8016      310.21089    
    504800   1372.6273      16.868478      294.13152     -215.4596       223239.26     -6672.4191     -6974.9401      302.52103    
    504900   1372.9026      16.590548      301.71232      56.419593      223213.3      -6665.8738     -6976.1919      310.31805    
    505000   1373.1775      16.312614      302.54709     -104.15072      223010.23     -6665.4721     -6976.6487      311.17663    
    505100   1373.4575      16.034741      300.66329     -264.94499      223451.13     -6667.9372     -6977.1763      309.2391     
    505200   1373.7326      15.75681       297.95245      673.47001      222953.55     -6670.9032     -6977.3542      306.45094    
    505300   1374.0125      15.478935      296.42745     -266.81159      222997.38     -6671.5607     -6976.4432      304.88244    
    505400   1374.2889      15.20102       300.14559     -152.07904      223173.39     -6672.3854     -6981.092       308.70663    
    505500   1374.5639      14.92309       296.28801      267.80142      223355.07     -6670.7213     -6975.4603      304.73903    
    505600   1374.8495      14.645275      301.62965      55.009725      222827.56     -6666.3128     -6976.5458      310.23303    
    505700   1375.1316      14.36742       301.92613     -27.500851      223048.85     -6666.2165     -6976.7544      310.53796    
    505800   1375.4069      14.089494      299.80955     -98.237901      223008.18     -6670.8847     -6979.2457      308.36101    
    505900   1375.6829      13.811575      300.52863     -480.98261      223070.38     -6675.7718     -6984.8724      309.1006     
    506000   1375.9636      13.533704      299.69444      481.61005      222903.5      -6680.361      -6988.6036      308.24262    
    506100   1376.2503      13.255889      293.40445     -377.35339      223292.28     -6675.6647     -6977.4379      301.77321    
    506200   1376.5296      12.978001      297.11886      110.72045      222947.38     -6668.7896     -6974.3832      305.59357    
    506300   1376.8064      12.700089      301.09029      675.21292      222760.68     -6667.6239     -6977.3021      309.67828    
    506400   1377.086       12.422203      302.12494     -663.39256      223187.09     -6667.6689     -6978.4113      310.74244    
    506500   1377.3621      12.144286      299.86436      268.07522      222975.86     -6670.0379     -6978.4553      308.41738    
    506600   1377.6437      11.866416      297.4953      -52.185803      223137.8      -6671.6063     -6977.5871      305.98075    
    506700   1377.9203      11.588504      297.44354     -154.0055       223032.76     -6670.9192     -6976.8467      305.92751    
    506800   1378.1966      11.310589      302.40073      170.37         222999.41     -6666.0062     -6977.0323      311.0261     
    506900   1378.4707      11.032656      301.74144      400.47467      223181.6      -6662.7388     -6973.0868      310.348      
    507000   1378.7502      10.754768      300.615       -1049.5015      223614.87     -6663.4875     -6972.6769      309.18944    
    507100   1379.0306      10.476887      298.45477      743.66103      222951.53     -6671.6965     -6978.6641      306.96759    
    507200   1379.3084      10.198984      300.85038     -489.19976      223069.61     -6673.002      -6982.4335      309.43152    
    507300   1379.5836      9.9210636      298.3267      -344.72109      223066.49     -6670.7272     -6977.5631      306.83586    
    507400   1379.8579      9.6431373      300.65467      617.96819      222877.85     -6666.28       -6975.5102      309.23024    
    507500   1380.1376      9.3652494      302.2232      -752.41987      223328.93     -6663.5154     -6974.3589      310.8435     
    507600   1380.4195      9.0873751      304.73757      240.96439      223019.35     -6664.1888     -6977.6184      313.42959    
    507700   1380.695       8.8094585      299.9699       111.20153      223238.56     -6666.1856     -6974.7115      308.52594    
    507800   1380.9703      8.5315415      297.82469     -617.57534      223211.97     -6669.0778     -6975.3973      306.31953    
    507900   1381.2499      8.2536512      299.53589     -77.163889      223039.8      -6671.2211     -6979.3006      308.07954    
    508000   1381.5282      7.9757525      297.62639      684.3056       223339.61     -6674.208      -6980.3235      306.11558    
    508100   1381.8141      7.6978966      299.11476     -260.08341      222779.07     -6671.204      -6978.8504      307.6464     
    508200   1382.0892      7.419979       298.86191     -328.43834      223005.84     -6665.6914     -6973.0777      307.38634    
    508300   1382.362       7.142051       300.41673      802.73151      223030.98     -6664.63       -6973.6155      308.98551    
    508400   1382.6356      6.8641288      298.57546     -134.31894      222966.05     -6668.309      -6975.4007      307.09172    
    508500   1382.911       6.5862166      296.22893     -128.45869      223151.94     -6674.8843     -6979.5626      304.67827    
    508600   1383.1927      6.3083349      297.57407      561.16678      223033.84     -6673.253      -6979.3147      306.06177    
    508700   1383.467       6.0304188      300.97874     -64.313202      223071.09     -6669.3101     -6978.8737      309.56355    
    508800   1383.7428      5.7525104      299.89048     -524.11175      223180.41     -6666.9008     -6975.345       308.44425    
    508900   1384.0161      5.4745934      301.76747      592.25463      223145.84     -6665.6984     -6976.0732      310.37478    
    509000   1384.2937      5.1966943      298.98367     -482.00634      223495.35     -6665.2566     -6972.7682      307.51158    
    509100   1384.5752      4.918809       303.18434      124.52492      223286.8      -6659.8399     -6971.672       311.83206    
    509200   1384.8513      4.6409039      302.94614      164.85696      223464.85     -6657.4098     -6968.9969      311.58707    
    509300   1385.1318      4.3630137      301.15146     -676.93702      223491.75     -6662.7042     -6972.4454      309.74119    
    509400   1385.4068      4.0851061      303.79749      593.30411      222953.72     -6666.6942     -6979.1569      312.4627     
    509500   1385.6812      3.8071981      297.5741       109.66885      222992.87     -6671.6005     -6977.6623      306.0618     
    509600   1385.9664      3.5293192      302.57806     -865.15289      223070.31     -6672.0132     -6983.2217      311.20848    
    509700   1386.2465      3.2514252      300.9705       299.72829      223124.08     -6669.6693     -6979.2243      309.55507    
    509800   1386.5246      2.973526       301.38803      296.53204      223012.81     -6667.2188     -6977.2033      309.98452    
    509900   1386.8043      2.6956299      299.05252     -690.00229      223288.47     -6667.1118     -6974.6942      307.58239    
    510000   1387.082       2.4177296      301.30983      202.79181      223187.14     -6665.8845     -6975.7886      309.90408    
    510100   1387.3633      2.1398348      301.03042      395.67686      223005.64     -6666.9131     -6976.5298      309.6167     
    510200   1387.6375      1.8619292      300.97242     -252.00352      222799.06     -6669.6352     -6979.1922      309.55705    
    510300   1387.9127      1.5840262      298.13895     -6.4038267      223315.41     -6672.2211     -6978.8638      306.64276    
    510400   1388.1911      1.3061274      300.03232      217.15692      223175.44     -6668.3692     -6976.9593      308.59014    
    510500   1388.4627      1.0282233      304.25877     -646.49228      223166.6      -6662.6974     -6975.6346      312.93714    
    510600   1388.7436      0.75032673     297.26282      65.688613      223503.65     -6663.1664     -6968.908       305.74164    
    510700   1389.017       0.4724264      299.12351      692.14272      223068.08     -6666.2567     -6973.9121      307.6554     
    510800   1389.2897      0.19452779     296.21966     -131.37883      223196.18     -6672.4514     -6977.1201      304.66873    
    510870   1389.4762      0              298.97089     -552.90165      223055.06     -6672.7902     -6980.2886      307.49843    
Loop time of 1389.48 on 1 procs for 500000 steps with 7958 atoms

Performance: 31.091 ns/day, 0.772 hours/ns, 359.848 timesteps/s, 2.864 Matom-step/s
99.3% CPU use with 1 MPI tasks x 1 OpenMP threads

MPI task timing breakdown:
Section |  min time  |  avg time  |  max time  |%varavg| %total
---------------------------------------------------------------
Pair    | 896.15     | 896.15     | 896.15     |   0.0 | 64.50
Bond    | 16.573     | 16.573     | 16.573     |   0.0 |  1.19
Kspace  | 0.44931    | 0.44931    | 0.44931    |   0.0 |  0.03
Neigh   | 165.82     | 165.82     | 165.82     |   0.0 | 11.93
Comm    | 75.487     | 75.487     | 75.487     |   0.0 |  5.43
Output  | 7.4651     | 7.4651     | 7.4651     |   0.0 |  0.54
Modify  | 191.62     | 191.62     | 191.62     |   0.0 | 13.79
Other   |            | 35.91      |            |       |  2.58

Nlocal:           7958 ave        7958 max        7958 min
Histogram: 1 0 0 0 0 0 0 0 0 0
Nghost:          13219 ave       13219 max       13219 min
Histogram: 1 0 0 0 0 0 0 0 0 0
Neighs:         699484 ave      699484 max      699484 min
Histogram: 1 0 0 0 0 0 0 0 0 0

Total # of neighbors = 699484
Ave neighs/atom = 87.896959
Ave special neighs/atom = 0.5885901
Neighbor list builds = 65925
Dangerous builds = 10
Final minimization...
Switching to 'neigh_modify every 1 delay 0 check yes' setting during minimization
PPPM Kokkos initialization ...
  using 12-bit tables for long-range coulomb
  G vector (1/distance) = 0.0001
  grid = 1 1 1
  stencil order = 5
  estimated absolute RMS force accuracy = 0
  estimated relative force accuracy = 0
  using double precision cuFFT
  3d grid and FFT values/proc = 216 1
WARNING: Using a manybody potential with bonds/angles/dihedrals and special_bond exclusions (src/pair.cpp:250)
Setting up cg/kk style minimization ...
  Unit style    : metal
  Current step  : 510870
WARNING: Fix property/atom/kk not compatible with Kokkos sorting on device (src/KOKKOS/atom_kokkos.cpp:212)
WARNING: Fix with atom-based arrays not compatible with Kokkos sorting on device, switching to classic host sorting (src/KOKKOS/atom_kokkos.cpp:218)
WARNING: Inconsistent image flags
For more information see https://docs.lammps.org/err0027 (src/domain.cpp:1052)
Per MPI rank memory allocation (min/avg/max) = 12.9 | 12.9 | 12.9 Mbytes
   Step          CPU          CPULeft          Temp          Press          Volume         TotEng         PotEng         KinEng    
    510870   0              0              298.97089     -552.90165      223055.06     -6672.7902     -6980.2886      307.49843    
    510894   0.16146459     6.5662983      298.97089     -7604.0954      223055.06     -6902.9444     -7210.4428      307.49843    
Loop time of 0.167774 on 1 procs for 24 steps with 7958 atoms

98.9% CPU use with 1 MPI tasks x 1 OpenMP threads

Minimization stats:
  Stopping criterion = energy tolerance
  Energy initial, next-to-last, final = 
     -6980.28860783827  -7209.74376076063  -7210.44279769477
  Force two-norm initial, final = 202.09178 29.763183
  Force max component initial, final = 14.247999 8.1095428
  Final line search alpha, max atom move = 0.012937332 0.10491585
  Iterations, force evaluations = 24 47

MPI task timing breakdown:
Section |  min time  |  avg time  |  max time  |%varavg| %total
---------------------------------------------------------------
Pair    | 0.11421    | 0.11421    | 0.11421    |   0.0 | 68.07
Bond    | 0.0015723  | 0.0015723  | 0.0015723  |   0.0 |  0.94
Kspace  | 4.236e-05  | 4.236e-05  | 4.236e-05  |   0.0 |  0.03
Neigh   | 0.027475   | 0.027475   | 0.027475   |   0.0 | 16.38
Comm    | 0.010674   | 0.010674   | 0.010674   |   0.0 |  6.36
Output  | 0          | 0          | 0          |   0.0 |  0.00
Modify  | 0          | 0          | 0          |   0.0 |  0.00
Other   |            | 0.0138     |            |       |  8.23

Nlocal:           7958 ave        7958 max        7958 min
Histogram: 1 0 0 0 0 0 0 0 0 0
Nghost:          13215 ave       13215 max       13215 min
Histogram: 1 0 0 0 0 0 0 0 0 0
Neighs:         699832 ave      699832 max      699832 min
Histogram: 1 0 0 0 0 0 0 0 0 0

Total # of neighbors = 699832
Ave neighs/atom = 87.940689
Ave special neighs/atom = 0.5885901
Neighbor list builds = 11
Dangerous builds = 0
System init for write_data ...
PPPM Kokkos initialization ...
  using 12-bit tables for long-range coulomb
  G vector (1/distance) = 0.0001
  grid = 1 1 1
  stencil order = 5
  estimated absolute RMS force accuracy = 0
  estimated relative force accuracy = 0
  using double precision cuFFT
  3d grid and FFT values/proc = 216 1
WARNING: Using a manybody potential with bonds/angles/dihedrals and special_bond exclusions (src/pair.cpp:250)
Simulation completed successfully
Total wall time: 0:23:38
